 +-------------------------------------------------+
 |                                                 |
 |      CCC   AA    SSS  TTTTT  EEEEE  PPPP        |
 |     C     A  A  S       T    E      P   P       |
 |     C     AAAA   SS     T    EEE    PPPP        |
 |     C     A  A     S    T    E      P           |
 |      CCC  A  A  SSS     T    EEEEE  P           |
 |                                                 |
 +-------------------------------------------------+
 |                                                 |
 | Welcome to Academic Release CASTEP version 24.1 |
 | Ab Initio Total Energy Program                  |
 |                                                 |
 | Authors:                                        |
 | M. Segall, M. Probert, C. Pickard, P. Hasnip,   |
 | S. Clark, K. Refson, J. R. Yates,               |
 | A. Bartok-Partay, M. Payne                      |
 |                                                 |
 | Contributors:                                   |
 | P. Lindan, P. Haynes, J. White, V. Milman,      |
 | N. Govind, M. Gibson, P. Tulip, V. Cocula,      |
 | B. Montanari, D. Quigley, M. Glover,            |
 | L. Bernasconi, A. Perlov, M. Plummer,           |
 | E. McNellis, J. Meyer, J. Gale, D. Jochym       |
 | J. Aarons, B. Walker, R. Gillen, D. Jones       |
 | T. Green, I. J. Bush, C. J. Armstrong,          |
 | E. J. Higgins, E. L. Brown, M. S. McFly,        |
 | J. Wilkins, B-C. Shih, P. J. P. Byrne,          |
 | R. J. Maurer, J. C. Womack, J. Dziedzic,        |
 | L. LeBlanc, T. K. Stenczel, J. Kermode,         |
 | S. Sturniolo, B. Shi, B. Durham, M. Evans,      |
 | M. J. Smith, A. Tamerus, Z. Hawkhead,           |
 | V. Ravindran, T. Hollins, S. A. Joyce,          |
 | R. T. Strong, A. M. Reilly                      |
 |                                                 |
 | Copyright (c) 2000 - 2023                       |
 |                                                 |
 |     Distributed under license from Cambridge    |
 |     Enterprise for academic use only.           |
 |                                                 |
 | Please cite                                     |
 |                                                 |
 |     "First principles methods using CASTEP"     |
 |                                                 |
 |         Zeitschrift fuer Kristallographie       |
 |           220(5-6) pp. 567-570 (2005)           |
 |                                                 |
 | S. J. Clark, M. D. Segall, C. J. Pickard,       |
 | P. J. Hasnip, M. J. Probert, K. Refson,         |
 | M. C. Payne                                     |
 |                                                 |
 |       in all publications arising from          |
 |              your use of CASTEP                 |
 |                                                 |
 +-------------------------------------------------+
 |                                                 |
 |              http://www.castep.org              |
 |                                                 |
 +-------------------------------------------------+



 Compiled for linux_x86_64_gfortran10 on Tue, 02 May 2023 15:31:46 +0100
 from code version db08e394c+  default  Mon May 1 16:40:39 2023 +0100
 Compiler: GNU Fortran 10.2.0; Optimisation: fast
 Comms   : Open MPI v4.0.5
 MATHLIBS: openblas (LAPACK version 3.9.0)
 FFT Lib : fftw3 version fftw-3.3.8-sse2-avx-avx2-avx2_128
 Fundamental constants values: CODATA 2018

 Run started: Mon, 05 Feb 2024 16:42:25 +0000

 Atomic calculation performed for Al: 1s2 2s2 2p6 3s2 3p1

 Converged in 54 iterations to an ae energy of -6603.783 eV

   ============================================================                
   | Pseudopotential Report - Date of generation  5-02-2024   |                
   ------------------------------------------------------------                
   | Element: Al Ionic charge:  3.00 Level of theory: PBE     |                
   | Atomic Solver: Koelling-Harmon                           |                
   |                                                          |                
   |               Reference Electronic Structure             |                
   |         Orbital         Occupation         Energy        |                
   |            3s              2.000           -0.285        |                
   |            3p              1.000           -0.100        |                
   |                                                          |                
   |                 Pseudopotential Definition               |                
   |        Beta     l      e      Rc     scheme   norm       |                
   |          1      0   -0.285   2.192     qc      0         |                
   |          2      0    0.250   2.192     qc      0         |                
   |          3      1   -0.100   2.192     qc      0         |                
   |          4      1    0.250   2.192     qc      0         |                
   |          5      2    0.000   2.000     qc      0         |                
   |          6      2    0.250   2.000     qc      0         |                
   |         loc     3    0.000   2.192     pn      0         |                
   |                                                          |                
   | Augmentation charge Rinner = 1.398                       |                
   | Partial core correction Rc = 1.398                       |                
   ------------------------------------------------------------                
   | "3|2.2|2.2|1.4|4|5|5|30:31:32U2U2"                       |                
   ------------------------------------------------------------                
   |      Author: Chris J. Pickard, Cambridge University      |                
   ============================================================                

 Atomic calculation performed for Ti: 1s2 2s2 2p6 3s2 3p6 3d2 4s2

 Converged in 79 iterations to an ae energy of -23226.658 eV

   ============================================================                
   | Pseudopotential Report - Date of generation  5-02-2024   |                
   ------------------------------------------------------------                
   | Element: Ti Ionic charge: 12.00 Level of theory: PBE     |                
   | Atomic Solver: Koelling-Harmon                           |                
   |                                                          |                
   |               Reference Electronic Structure             |                
   |         Orbital         Occupation         Energy        |                
   |            3s              2.000           -2.302        |                
   |            3p              6.000           -1.428        |                
   |            4s              2.000           -0.164        |                
   |            3d              2.000           -0.157        |                
   |                                                          |                
   |                 Pseudopotential Definition               |                
   |        Beta     l      e      Rc     scheme   norm       |                
   |          1      0   -2.302   1.793     qc      0         |                
   |          2      0   -0.164   1.793     qc      0         |                
   |          3      0    0.250   1.793     qc      0         |                
   |          4      1   -1.428   1.793     qc      0         |                
   |          5      1    0.250   1.793     qc      0         |                
   |          6      2   -0.157   1.793     qc      0         |                
   |          7      2    0.250   1.793     qc      0         |                
   |         loc     3    0.000   1.793     pn      0         |                
   |                                                          |                
   | Augmentation charge Rinner = 1.263                       |                
   | Partial core correction Rc = 1.263                       |                
   ------------------------------------------------------------                
   | "3|1.8|9|10|11|30U:40:31:32(qc=5.5)"                     |                
   ------------------------------------------------------------                
   |      Author: Chris J. Pickard, Cambridge University      |                
   ============================================================                

 Atomic calculation performed for V: 1s2 2s2 2p6 3s2 3p6 3d3 4s2

 Converged in 81 iterations to an ae energy of -25823.733 eV

   ============================================================                
   | Pseudopotential Report - Date of generation  5-02-2024   |                
   ------------------------------------------------------------                
   | Element: V Ionic charge: 13.00 Level of theory: PBE      |                
   | Atomic Solver: Koelling-Harmon                           |                
   |                                                          |                
   |               Reference Electronic Structure             |                
   |         Orbital         Occupation         Energy        |                
   |            3s              2.000           -2.581        |                
   |            3p              6.000           -1.618        |                
   |            3d              3.000           -0.190        |                
   |            4s              2.000           -0.173        |                
   |                                                          |                
   |                 Pseudopotential Definition               |                
   |        Beta     l      e      Rc     scheme   norm       |                
   |          1      0   -2.581   1.803     qc      0         |                
   |          2      0   -0.173   1.803     qc      0         |                
   |          3      0    0.250   1.803     qc      0         |                
   |          4      1   -1.618   1.803     qc      0         |                
   |          5      1    0.250   1.803     qc      0         |                
   |          6      2   -0.190   1.803     qc      0         |                
   |          7      2    0.250   1.803     qc      0         |                
   |         loc     3    0.000   1.803     pn      0         |                
   |                                                          |                
   | Augmentation charge Rinner = 0.600                       |                
   | Partial core correction Rc = 0.600                       |                
   ------------------------------------------------------------                
   | "3|1.8|1.8|0.6|12|14|16|30U:40:31:32(qc=7)"              |                
   ------------------------------------------------------------                
   |      Author: Chris J. Pickard, Cambridge University      |                
   ============================================================                

 Pseudo atomic calculation performed for Al 3s2 3p1

 Converged in 20 iterations to a total energy of -107.1308 eV

 Pseudo atomic calculation performed for Ti 3s2 3p6 3d2 4s2

 Converged in 45 iterations to a total energy of -1587.0236 eV

 Pseudo atomic calculation performed for V 3s2 3p6 3d3 4s2

 Converged in 46 iterations to a total energy of -2065.7874 eV
 Calculation parallelised over 336 processes.
 Data is distributed by G-vector(24-way) and k-point(14-way)

 ************************************ Title ************************************
 

 ***************************** General Parameters ******************************
  
 output verbosity                               : normal  (1)
 write checkpoint data to                       : sqs_hcp_sc3x3x3_Ti46Al6V2_frame0_geomopti.check
 type of calculation                            : geometry optimization
 stress calculation                             : on
 density difference calculation                 : off
 electron localisation func (ELF) calculation   : off
 Hirshfeld analysis                             : off
 polarisation (Berry phase) analysis            : off
 molecular orbital projected DOS                : off
 deltaSCF calculation                           : off
 unlimited duration calculation
 timing information                             : on
 memory usage estimate                          : on
 write extra output files                       : on
 write final potential to formatted file        : off
 write final density to formatted file          : off
 write BibTeX reference list                    : on
 write OTFG pseudopotential files               : on
 write electrostatic potential file             : on
 write bands file                               : on
 checkpoint writing                             : both castep_bin and check files
  
 output         length unit                     : A
 output           mass unit                     : amu
 output           time unit                     : ps
 output         charge unit                     : e
 output           spin unit                     : hbar/2
 output         energy unit                     : eV
 output          force unit                     : eV/A
 output       velocity unit                     : A/ps
 output       pressure unit                     : GPa
 output     inv_length unit                     : 1/A
 output      frequency unit                     : cm-1
 output force constant unit                     : eV/A**2
 output         volume unit                     : A**3
 output   IR intensity unit                     : (D/A)**2/amu
 output         dipole unit                     : D
 output         efield unit                     : eV/A/e
 output        entropy unit                     : J/mol/K
 output    efield chi2 unit                     : pm/V
  
 wavefunctions paging                           : none
 random number generator seed                   :  164225943
 data distribution                              : k-point only
 optimization strategy                          : maximize speed(+++)

 *********************** Exchange-Correlation Parameters ***********************
  
 using functional                               : Perdew Burke Ernzerhof
 relativistic treatment                         : Koelling-Harmon
 DFT+D: Semi-empirical dispersion correction    : off

 ************************* Pseudopotential Parameters **************************
  
 pseudopotential representation                 : reciprocal space
 <beta|phi> representation                      : reciprocal space
 spin-orbit coupling                            : off

 **************************** Basis Set Parameters *****************************
  
 plane wave basis set cut-off                   :   800.0000   eV
 size of standard grid                          :     2.0000
 size of   fine   gmax                          :    28.9810   1/A
 largest prime factor in FFT                    :          5
 finite basis set correction                    : automatic
 number of sample energies                      :          3
           sample  spacing                      :     5.0000   eV

 **************************** Electronic Parameters ****************************
  
 number of  electrons                           :  596.0    
 net charge of system                           :  0.000    
 treating system as non-spin-polarized
 number of bands                                :        333

 ********************* Electronic Minimization Parameters **********************
  
 Method: Treating system as metallic with density mixing treatment of electrons,
         and number of  SD  steps               :          1
         and number of  CG  steps               :          4
  
 total energy / atom convergence tol.           : 0.1000E-07   eV
 eigen-energy convergence tolerance             : 0.1622E-08   eV
 max force / atom convergence tol.              : ignored
 convergence tolerance window                   :          3   cycles
 max. number of SCF cycles                      :         30
 number of fixed-spin iterations                :         10
 smearing scheme                                : Gaussian
 smearing width                                 : 0.5000E-01   eV
 Fermi energy convergence tolerance             : 0.2721E-13   eV
 periodic dipole correction                     : NONE

 ************************** Density Mixing Parameters **************************
  
 density-mixing scheme                          : Pulay
 max. length of mixing history                  :         20
 charge density mixing amplitude                : 0.8000    
 cut-off energy for mixing                      :  800.0       eV
 charge density mixing g-vector                 :  1.500       1/A

 *********************** Population Analysis Parameters ************************
  
 Population analysis with cutoff                :  3.000       A
 Population analysis output                     : summary and pdos components

 ********************** Geometry Optimization Parameters ***********************
  
 optimization method                            : LBFGS
 max. no. of LBFGS updates                      : unbounded
 variable cell method                           : fixed basis quality
 max. number of steps                           :         30
 estimated bulk modulus                         :  500.0       GPa
 estimated <frequency>                          :  1668.       cm-1
 geom line minimiser                            : on
 with line minimiser tolerance                  :     0.4000
 total energy convergence tolerance             : 0.2000E-04   eV/atom
        max ionic |force| tolerance             : 0.5000E-01   eV/A
 max ionic |displacement| tolerance             : 0.1000E-02   A
   max |stress component| tolerance             : 0.1000       GPa
 convergence tolerance window                   :          2   steps
 backup results every                           :          5   steps
 write geom trajectory file                     : on

 ******************************* Developer Code ********************************
  
 PARALLEL: kpoint=14 : ENDPARALLEL
 no_improve_wvfn

 *******************************************************************************
  

                           -------------------------------
                                      Unit Cell
                           -------------------------------
        Real Lattice(A)                      Reciprocal Lattice(1/A)
     4.3766840    -7.5806380     0.0000000        0.717802029  -0.414423252   0.000000000
     4.3766840     7.5806380     0.0000000        0.717802029   0.414423252   0.000000000
     0.0000000     0.0000000    13.8403310        0.000000000   0.000000000   0.453976520

                       Lattice parameters(A)       Cell Angles
                    a =      8.753367          alpha =   90.000000
                    b =      8.753367          beta  =   90.000000
                    c =     13.840331          gamma =  119.999993

                       Current cell volume =           918.390583       A**3
                                   density =             2.684756   AMU/A**3
                                           =             4.458142     g/cm^3

                           -------------------------------
                                     Cell Contents
                           -------------------------------
                         Total number of ions in cell =   54
                      Total number of species in cell =    3
                        Max number of any one species =   46

            xxxxxxxxxxxxxxxxxxxxxxxxxxxxxxxxxxxxxxxxxxxxxxxxxxxxxxxxxxxx
            x  Element    Atom        Fractional coordinates of atoms  x
            x            Number           u          v          w      x
            x----------------------------------------------------------x
            x  Al           1         0.219423   0.444605   0.915054   x 
            x  Al           2         0.446436   0.884281   0.751530   x 
            x  Al           3         0.886310   0.110994   0.248712   x 
            x  Al           4         0.782061   0.221188   0.751964   x 
            x  Al           5         0.885468   0.445999   0.584699   x 
            x  Al           6         0.777770   0.547874   0.750458   x 
            x  Ti           1         0.103540   0.232624   0.080577   x 
            x  Ti           2         0.216482   0.108649   0.245500   x 
            x  Ti           3         0.109855   0.219761   0.413421   x 
            x  Ti           4         0.220625   0.113343   0.584684   x 
            x  Ti           5         0.108842   0.221864   0.756249   x 
            x  Ti           6         0.219235   0.114175   0.920392   x 
            x  Ti           7         0.215661   0.447520   0.246699   x 
            x  Ti           8         0.109158   0.558782   0.419090   x 
            x  Ti           9         0.222198   0.439425   0.582474   x 
            x  Ti          10         0.116453   0.555119   0.747546   x 
            x  Ti          11         0.107280   0.880725   0.081360   x 
            x  Ti          12         0.219115   0.775161   0.249082   x 
            x  Ti          13         0.113490   0.891895   0.416988   x 
            x  Ti          14         0.224523   0.783117   0.586585   x 
            x  Ti          15         0.120306   0.889766   0.754349   x 
            x  Ti          16         0.230999   0.775453   0.918147   x 
            x  Ti          17         0.447636   0.220416   0.083111   x 
            x  Ti          18         0.554578   0.108651   0.252167   x 
            x  Ti          19         0.439699   0.220760   0.414424   x 
            x  Ti          20         0.556687   0.109063   0.585524   x 
            x  Ti          21         0.445790   0.216791   0.751309   x 
            x  Ti          22         0.561850   0.102568   0.915270   x 
            x  Ti          23         0.437350   0.553610   0.081186   x 
            x  Ti          24         0.555405   0.445203   0.247277   x 
            x  Ti          25         0.444170   0.556224   0.413505   x 
            x  Ti          26         0.554937   0.443461   0.581663   x 
            x  Ti          27         0.446470   0.553696   0.750577   x 
            x  Ti          28         0.551492   0.441586   0.916141   x 
            x  Ti          29         0.440368   0.890469   0.083505   x 
            x  Ti          30         0.556879   0.782796   0.248425   x 
            x  Ti          31         0.440192   0.887307   0.420838   x 
            x  Ti          32         0.549525   0.773468   0.582519   x 
            x  Ti          33         0.552996   0.778951   0.918835   x 
            x  Ti          34         0.775049   0.217920   0.084004   x 
            x  Ti          35         0.780694   0.226316   0.419605   x 
            x  Ti          36         0.898280   0.123031   0.582372   x 
            x  Ti          37         0.781114   0.557258   0.079222   x 
            x  Ti          38         0.892254   0.446613   0.250525   x 
            x  Ti          39         0.777562   0.556181   0.418002   x 
            x  Ti          40         0.895523   0.436526   0.915217   x 
            x  Ti          41         0.786063   0.896720   0.081469   x 
            x  Ti          42         0.887802   0.780796   0.251125   x 
            x  Ti          43         0.778391   0.893053   0.418345   x 
            x  Ti          44         0.892770   0.775897   0.587600   x 
            x  Ti          45         0.775568   0.894678   0.751312   x 
            x  Ti          46         0.885362   0.776300   0.912353   x 
            x  V            1         0.116008   0.559683   0.078086   x 
            x  V            2         0.886307   0.111685   0.918925   x 
            xxxxxxxxxxxxxxxxxxxxxxxxxxxxxxxxxxxxxxxxxxxxxxxxxxxxxxxxxxxx


                         No user defined ionic velocities

                           -------------------------------
                                   Details of Species
                           -------------------------------

                               Mass of species in AMU
                                    Al   26.9815400
                                    Ti   47.8670000
                                    V   50.9415000

                          Electric Quadrupole Moment (Barn)
                                    Al    0.1466000 Isotope 27
                                    Ti    0.3020000 Isotope 47
                                    V   -0.0520000 Isotope 51

                          Files used for pseudopotentials:
                                    Al 3|2.2|2.2|1.4|4|5|5|30:31:32U2U2
                                    Ti 3|1.8|9|10|11|30U:40:31:32(qc=5.5)
                                    V 3|1.8|1.8|0.6|12|14|16|30U:40:31:32(qc=7)

                           -------------------------------
                              k-Points For BZ Sampling
                           -------------------------------
                       MP grid size for SCF calculation is  7  7  4
                            with an offset of   0.000  0.000  0.000
                       Number of kpoints used =            98

                           -------------------------------
                               Symmetry and Constraints
                           -------------------------------

                      Maximum deviation from symmetry =  0.00000         ANG

                      Number of symmetry operations   =           1
                      Number of ionic constraints     =           3
                      Point group of crystal =     1: C1, 1, 1
                      Space group of crystal =     1: P1, P 1

             Set iprint > 1 for details on symmetry rotations/translations

                         Centre of mass is constrained
             Set iprint > 1 for details of linear ionic constraints

                         Number of cell constraints= 4
                         Cell constraints are:  1 1 3 0 0 0

                         External pressure/stress (GPa)
                          0.00000   0.00000   0.00000
                                    0.00000   0.00000
                                              0.00000
 
+---------------- MEMORY AND SCRATCH DISK ESTIMATES PER PROCESS --------------+
|                                                     Memory          Disk    |
| Baseline code, static data and system overhead      591.0 MB         0.0 MB |
| BLAS internal memory storage                          0.0 MB         0.0 MB |
| Model and support data                              547.6 MB         0.0 MB |
| Electronic energy minimisation requirements         183.8 MB         0.0 MB |
| Force calculation requirements                        6.8 MB         0.0 MB |
| Stress calculation requirements                       7.3 MB         0.0 MB |
|                                               ----------------------------- |
| Approx. total storage required per process         1322.5 MB         0.0 MB |
|                                                                             |
| Requirements will fluctuate during execution and may exceed these estimates |
+-----------------------------------------------------------------------------+
Calculating finite basis set correction with  3 cut-off energies.
Calculating total energy with cut-off of  790.000 eV.
------------------------------------------------------------------------ <-- SCF
SCF loop      Energy           Fermi           Energy gain       Timer   <-- SCF
                               energy          per atom          (sec)   <-- SCF
------------------------------------------------------------------------ <-- SCF
Initial  -7.02256635E+004  0.00000000E+000                        24.97  <-- SCF
      1  -7.61480943E+004  1.15657325E+001   1.09674643E+002      94.74  <-- SCF
      2  -7.80203020E+004  9.27287086E+000   3.46705140E+001     152.22  <-- SCF
      3  -7.81361724E+004  8.97278198E+000   2.14574842E+000     212.37  <-- SCF
      4  -7.81414199E+004  8.17828293E+000   9.71747574E-002     280.35  <-- SCF
      5  -7.81425642E+004  8.34964315E+000   2.11903220E-002     354.56  <-- SCF
      6  -7.81362030E+004  8.53154223E+000  -1.17799487E-001     422.26  <-- SCF
      7  -7.81346394E+004  8.51522448E+000  -2.89543293E-002     495.24  <-- SCF
      8  -7.81346289E+004  8.46745347E+000  -1.95172676E-004     563.67  <-- SCF
      9  -7.81345105E+004  8.46129914E+000  -2.19286663E-003     631.82  <-- SCF
     10  -7.81345744E+004  8.46066500E+000   1.18312671E-003     701.32  <-- SCF
     11  -7.81344705E+004  8.46129851E+000  -1.92458795E-003     768.80  <-- SCF
     12  -7.81344751E+004  8.46072352E+000   8.59355133E-005     837.92  <-- SCF
     13  -7.81344723E+004  8.46022450E+000  -5.26795761E-005     903.30  <-- SCF
     14  -7.81344724E+004  8.46027659E+000   3.29136392E-006     974.56  <-- SCF
     15  -7.81344722E+004  8.46028545E+000  -4.23718344E-006    1040.45  <-- SCF
     16  -7.81344722E+004  8.46031587E+000   2.17072822E-007    1108.47  <-- SCF
     17  -7.81344722E+004  8.46029594E+000  -3.60157607E-007    1166.89  <-- SCF
     18  -7.81344722E+004  8.46030067E+000   2.85159002E-008    1225.37  <-- SCF
     19  -7.81344722E+004  8.46028566E+000  -3.15982482E-008    1275.06  <-- SCF
     20  -7.81344722E+004  8.46028863E+000   5.08263153E-010    1315.84  <-- SCF
     21  -7.81344722E+004  8.46028532E+000  -2.72463881E-010    1356.33  <-- SCF
------------------------------------------------------------------------ <-- SCF
 
Final energy, E             =  -78134.39990794     eV
Final free energy (E-TS)    =  -78134.47219377     eV
(energies not corrected for finite basis set)
 
NB est. 0K energy (E-0.5TS)      =  -78134.43605085     eV
 
Calculating total energy with cut-off of  795.000 eV.
------------------------------------------------------------------------ <-- SCF
SCF loop      Energy           Fermi           Energy gain       Timer   <-- SCF
                               energy          per atom          (sec)   <-- SCF
------------------------------------------------------------------------ <-- SCF
Initial  -7.81343999E+004  0.00000000E+000                      1366.84  <-- SCF
      1  -7.81344731E+004  8.46027519E+000   1.35561111E-003    1419.32  <-- SCF
      2  -7.81344731E+004  8.46027517E+000   3.23150413E-008    1473.56  <-- SCF
      3  -7.81344733E+004  8.46034381E+000   3.38815528E-006    1539.35  <-- SCF
      4  -7.81344731E+004  8.46024703E+000  -3.34514975E-006    1603.77  <-- SCF
      5  -7.81344731E+004  8.46029316E+000  -1.40162158E-007    1663.44  <-- SCF
      6  -7.81344731E+004  8.46029420E+000   1.43771101E-008    1713.05  <-- SCF
      7  -7.81344731E+004  8.46028034E+000  -3.39101810E-009    1753.84  <-- SCF
      8  -7.81344731E+004  8.46028307E+000  -4.27830165E-010    1793.02  <-- SCF
------------------------------------------------------------------------ <-- SCF
 
Final energy, E             =  -78134.40082131     eV
Final free energy (E-TS)    =  -78134.47310781     eV
(energies not corrected for finite basis set)
 
NB est. 0K energy (E-0.5TS)      =  -78134.43696456     eV
 
Calculating total energy with cut-off of  800.000 eV.
------------------------------------------------------------------------ <-- SCF
SCF loop      Energy           Fermi           Energy gain       Timer   <-- SCF
                               energy          per atom          (sec)   <-- SCF
------------------------------------------------------------------------ <-- SCF
Initial  -7.81344008E+004  0.00000000E+000                      1803.67  <-- SCF
      1  -7.81344740E+004  8.46026912E+000   1.35534622E-003    1855.15  <-- SCF
      2  -7.81344740E+004  8.46026903E+000   7.43122894E-008    1911.22  <-- SCF
      3  -7.81344744E+004  8.46048208E+000   7.74840783E-006    1979.00  <-- SCF
      4  -7.81344740E+004  8.46016998E+000  -7.67328021E-006    2045.45  <-- SCF
      5  -7.81344740E+004  8.46026650E+000  -4.16166695E-007    2104.88  <-- SCF
      6  -7.81344740E+004  8.46029162E+000   5.11773789E-008    2164.23  <-- SCF
      7  -7.81344740E+004  8.46027699E+000  -2.31218487E-008    2214.31  <-- SCF
      8  -7.81344740E+004  8.46028279E+000  -6.19952720E-009    2254.88  <-- SCF
      9  -7.81344740E+004  8.46028332E+000  -1.71865358E-010    2294.36  <-- SCF
------------------------------------------------------------------------ <-- SCF
 
Final energy, E             =  -78134.40171135     eV
Final free energy (E-TS)    =  -78134.47399634     eV
(energies not corrected for finite basis set)
 
NB est. 0K energy (E-0.5TS)      =  -78134.43785385     eV
 
 For future reference: finite basis dEtot/dlog(Ecut) =      -0.143559eV
 Total energy corrected for finite basis set =  -78134.473998 eV
 
+---------------- MEMORY AND SCRATCH DISK ESTIMATES PER PROCESS --------------+
|                                                     Memory          Disk    |
| Model and support data                              557.0 MB         0.0 MB |
| Electronic energy minimisation requirements         183.8 MB         0.0 MB |
| Geometry minimisation requirements                  258.0 MB         0.0 MB |
|                                               ----------------------------- |
| Approx. total storage required per process          998.8 MB         0.0 MB |
|                                                                             |
| Requirements will fluctuate during execution and may exceed these estimates |
+-----------------------------------------------------------------------------+
 

 ************************************** Forces **************************************
 *                                                                                  *
 *                           Cartesian components (eV/A)                            *
 * -------------------------------------------------------------------------------- *
 *                         x                    y                    z              *
 *                                                                                  *
 * Al              1      0.07539             -0.05082              0.11648         *
 * Al              2     -0.04115             -0.06056             -0.15324         *
 * Al              3      0.01134             -0.01969              0.15154         *
 * Al              4     -0.03300              0.05599             -0.10998         *
 * Al              5     -0.05939             -0.05950              0.08617         *
 * Al              6      0.06842              0.14587              0.03003         *
 * Ti              1     -0.01511              0.07718             -0.05160         *
 * Ti              2     -0.01921              0.09381              0.01981         *
 * Ti              3     -0.00683             -0.03961              0.00290         *
 * Ti              4     -0.02563              0.02807             -0.05038         *
 * Ti              5     -0.00411             -0.08782             -0.17023         *
 * Ti              6      0.06990              0.05087              0.01810         *
 * Ti              7     -0.08707              0.05151              0.01875         *
 * Ti              8     -0.00380             -0.04658             -0.09133         *
 * Ti              9      0.04641             -0.05226              0.07200         *
 * Ti             10     -0.09637              0.06370              0.04413         *
 * Ti             11     -0.03694             -0.08320             -0.06432         *
 * Ti             12     -0.04778             -0.01747              0.01189         *
 * Ti             13      0.02254              0.02952              0.04514         *
 * Ti             14      0.07612              0.02131              0.07379         *
 * Ti             15     -0.06259              0.10226             -0.05211         *
 * Ti             16     -0.09388              0.17149             -0.00653         *
 * Ti             17      0.02292             -0.01756             -0.06831         *
 * Ti             18      0.07196             -0.00631             -0.12862         *
 * Ti             19     -0.02170              0.04848              0.07659         *
 * Ti             20     -0.04988              0.10545             -0.13221         *
 * Ti             21      0.01376             -0.03585              0.01686         *
 * Ti             22     -0.03479              0.22771              0.16576         *
 * Ti             23      0.01179              0.02800             -0.13186         *
 * Ti             24     -0.04992             -0.01542              0.00849         *
 * Ti             25      0.04037              0.01237              0.03525         *
 * Ti             26      0.03527             -0.03498             -0.12240         *
 * Ti             27      0.13582             -0.00006              0.04438         *
 * Ti             28     -0.01910              0.02279              0.13712         *
 * Ti             29     -0.16773              0.02161              0.00871         *
 * Ti             30      0.09299             -0.02604              0.00744         *
 * Ti             31     -0.05392             -0.00346             -0.09553         *
 * Ti             32     -0.06634             -0.07709             -0.02134         *
 * Ti             33      0.00426             -0.22339              0.03601         *
 * Ti             34      0.02628             -0.06147             -0.02242         *
 * Ti             35      0.01602             -0.05508             -0.02104         *
 * Ti             36      0.00627             -0.05422             -0.03647         *
 * Ti             37     -0.00155             -0.01167             -0.03835         *
 * Ti             38      0.01586             -0.10955             -0.14839         *
 * Ti             39      0.00104             -0.01585              0.17459         *
 * Ti             40      0.01348              0.15266              0.05270         *
 * Ti             41     -0.06607              0.06336             -0.01933         *
 * Ti             42      0.05287              0.04363             -0.04654         *
 * Ti             43     -0.01031              0.00193             -0.09039         *
 * Ti             44     -0.05751             -0.03333             -0.07108         *
 * Ti             45     -0.10644             -0.09273             -0.04443         *
 * Ti             46     -0.00299             -0.05063              0.18022         *
 * V               1      0.10712              0.04452              0.16302         *
 * V               2      0.30291             -0.22188              0.19058         *
 *                                                                                  *
 ************************************************************************************

 ***************** Stress Tensor *****************
 *                                               *
 *          Cartesian components (GPa)           *
 * --------------------------------------------- *
 *             x             y             z     *
 *                                               *
 *  x      0.138877     -0.063934     -0.189141  *
 *  y     -0.063934      0.282988     -0.071001  *
 *  z     -0.189141     -0.071001     -0.450480  *
 *                                               *
 *  Pressure:    0.0095                          *
 *                                               *
 *************************************************

 *********** Constrained Stress Tensor ***********
 *                                               *
 *          Cartesian components (GPa)           *
 * --------------------------------------------- *
 *             x             y             z     *
 *                                               *
 *  x      0.210925     -0.000000     -0.000000  *
 *  y     -0.000000      0.210925     -0.000000  *
 *  z     -0.000000     -0.000000     -0.450489  *
 *                                               *
 *  Pressure:    0.0095                          *
 *                                               *
 *************************************************
 LBFGS: finished iteration     0 with enthalpy= -7.81344740E+004 eV
  
 +-----------+-----------------+-----------------+------------+-----+ <-- LBFGS
 | Parameter |      value      |    tolerance    |    units   | OK? | <-- LBFGS
 +-----------+-----------------+-----------------+------------+-----+ <-- LBFGS
 |  dE/ion   |   0.000000E+000 |   2.000000E-005 |         eV | No  | <-- LBFGS
 |  |F|max   |   4.210798E-001 |   5.000000E-002 |       eV/A | No  | <-- LBFGS
 |  |dR|max  |   0.000000E+000 |   1.000000E-003 |          A | No  | <-- LBFGS
 |   Smax    |   4.504888E-001 |   1.000000E-001 |        GPa | No  | <-- LBFGS
 +-----------+-----------------+-----------------+------------+-----+ <-- LBFGS
  

================================================================================
 Starting LBFGS iteration          1 ...
================================================================================
  
 +------------+-------------+-------------+-----------------+ <-- min LBFGS
 |    Step    |   lambda    |   F.delta'  |    enthalpy     | <-- min LBFGS
 +------------+-------------+-------------+-----------------+ <-- min LBFGS
 |  previous  |    0.000000 |    0.292634 |   -78134.473998 | <-- min LBFGS
 +------------+-------------+-------------+-----------------+ <-- min LBFGS
  

--------------------------------------------------------------------------------
 LBFGS: starting iteration         1 with trial guess (lambda=  1.000000)
--------------------------------------------------------------------------------

                           -------------------------------
                                      Unit Cell
                           -------------------------------
        Real Lattice(A)              Reciprocal Lattice(1/A)
     4.3760686    -7.5795720     0.0000000        0.717902978  -0.414481535  -0.000000000
     4.3760686     7.5795720     0.0000000        0.717902978   0.414481535  -0.000000000
     0.0000000     0.0000000    13.8444876       -0.000000000  -0.000000000   0.453840220

                       Lattice parameters(A)       Cell Angles
                    a =      8.752136          alpha =   90.000000
                    b =      8.752136          beta  =   90.000000
                    c =     13.844488          gamma =  119.999993

                Current cell volume =           918.408057 A**3
                            density =             2.684704 amu/A**3
                                    =             4.458057 g/cm^3

                           -------------------------------
                                     Cell Contents
                           -------------------------------

            xxxxxxxxxxxxxxxxxxxxxxxxxxxxxxxxxxxxxxxxxxxxxxxxxxxxxxxxxxxxxxxxx
            x  Element         Atom        Fractional coordinates of atoms  x
            x                 Number           u          v          w      x
            x---------------------------------------------------------------x
            x  Al                1         0.219448   0.444616   0.915072   x
            x  Al                2         0.446435   0.884262   0.751506   x
            x  Al                3         0.886315   0.110994   0.248736   x
            x  Al                4         0.782045   0.221188   0.751947   x
            x  Al                5         0.885462   0.445977   0.584713   x
            x  Al                6         0.777766   0.547911   0.750463   x
            x  Ti                1         0.103526   0.232631   0.080569   x
            x  Ti                2         0.216464   0.108657   0.245503   x
            x  Ti                3         0.109859   0.219754   0.413421   x
            x  Ti                4         0.220615   0.113341   0.584676   x
            x  Ti                5         0.108853   0.221851   0.756222   x
            x  Ti                6         0.219245   0.114200   0.920395   x
            x  Ti                7         0.215632   0.447506   0.246702   x
            x  Ti                8         0.109164   0.558775   0.419076   x
            x  Ti                9         0.222217   0.439429   0.582485   x
            x  Ti               10         0.116421   0.555104   0.747553   x
            x  Ti               11         0.107283   0.880705   0.081350   x
            x  Ti               12         0.219106   0.775146   0.249084   x
            x  Ti               13         0.113491   0.891905   0.416995   x
            x  Ti               14         0.224538   0.783139   0.586596   x
            x  Ti               15         0.120276   0.889765   0.754341   x
            x  Ti               16         0.230952   0.775454   0.918146   x
            x  Ti               17         0.447645   0.220419   0.083100   x
            x  Ti               18         0.554596   0.108668   0.252148   x
            x  Ti               19         0.439686   0.220762   0.414436   x
            x  Ti               20         0.556660   0.109066   0.585503   x
            x  Ti               21         0.445798   0.216790   0.751312   x
            x  Ti               22         0.561809   0.102592   0.915296   x
            x  Ti               23         0.437349   0.553616   0.081166   x
            x  Ti               24         0.555395   0.445189   0.247278   x
            x  Ti               25         0.444178   0.556236   0.413511   x
            x  Ti               26         0.554950   0.443465   0.581644   x
            x  Ti               27         0.446503   0.553730   0.750584   x
            x  Ti               28         0.551484   0.441584   0.916162   x
            x  Ti               29         0.440324   0.890431   0.083506   x
            x  Ti               30         0.556905   0.782815   0.248426   x
            x  Ti               31         0.440179   0.887294   0.420824   x
            x  Ti               32         0.549519   0.773441   0.582515   x
            x  Ti               33         0.553028   0.778920   0.918841   x
            x  Ti               34         0.775064   0.217918   0.084001   x
            x  Ti               35         0.780706   0.226312   0.419602   x
            x  Ti               36         0.898289   0.123025   0.582366   x
            x  Ti               37         0.781115   0.557256   0.079216   x
            x  Ti               38         0.892273   0.446601   0.250502   x
            x  Ti               39         0.777564   0.556179   0.418029   x
            x  Ti               40         0.895504   0.436551   0.915226   x
            x  Ti               41         0.786038   0.896713   0.081466   x
            x  Ti               42         0.887809   0.780815   0.251117   x
            x  Ti               43         0.778388   0.893050   0.418331   x
            x  Ti               44         0.892761   0.775879   0.587589   x
            x  Ti               45         0.775555   0.894638   0.751306   x
            x  Ti               46         0.885368   0.776292   0.912381   x
            x  V                 1         0.116028   0.559716   0.078112   x
            x  V                 2         0.886412   0.111728   0.918954   x
            xxxxxxxxxxxxxxxxxxxxxxxxxxxxxxxxxxxxxxxxxxxxxxxxxxxxxxxxxxxxxxxxx


------------------------------------------------------------------------ <-- SCF
SCF loop      Energy           Fermi           Energy gain       Timer   <-- SCF
                               energy          per atom          (sec)   <-- SCF
------------------------------------------------------------------------ <-- SCF
Initial  -7.81343916E+004  0.00000000E+000                      2412.41  <-- SCF
      1  -7.81344945E+004  8.45904821E+000   1.90593776E-003    2465.00  <-- SCF
      2  -7.81344972E+004  8.45900932E+000   5.10732377E-005    2536.97  <-- SCF
      3  -7.81347865E+004  8.45864516E+000   5.35748824E-003    2603.58  <-- SCF
      4  -7.81345020E+004  8.46147443E+000  -5.26917043E-003    2670.52  <-- SCF
      5  -7.81344811E+004  8.46071525E+000  -3.86637678E-004    2741.04  <-- SCF
      6  -7.81344791E+004  8.46059223E+000  -3.83289894E-005    2808.56  <-- SCF
      7  -7.81344775E+004  8.45968539E+000  -2.87864541E-005    2876.89  <-- SCF
      8  -7.81344774E+004  8.46004346E+000  -1.22776693E-006    2946.70  <-- SCF
      9  -7.81344774E+004  8.46016240E+000  -8.37846142E-007    3012.87  <-- SCF
     10  -7.81344774E+004  8.46015419E+000  -8.32545585E-008    3080.04  <-- SCF
     11  -7.81344774E+004  8.46003449E+000  -9.76493135E-008    3135.17  <-- SCF
     12  -7.81344774E+004  8.46006305E+000  -4.39585756E-009    3190.59  <-- SCF
     13  -7.81344774E+004  8.46010251E+000  -1.34575159E-008    3231.31  <-- SCF
     14  -7.81344774E+004  8.46010089E+000  -6.14590521E-010    3271.71  <-- SCF
     15  -7.81344774E+004  8.46009818E+000   3.24481796E-010    3311.04  <-- SCF
------------------------------------------------------------------------ <-- SCF
 
Final energy, E             =  -78134.40511372     eV
Final free energy (E-TS)    =  -78134.47738033     eV
(energies not corrected for finite basis set)
 
NB est. 0K energy (E-0.5TS)      =  -78134.44124702     eV
 

 ************************************** Forces **************************************
 *                                                                                  *
 *                           Cartesian components (eV/A)                            *
 * -------------------------------------------------------------------------------- *
 *                         x                    y                    z              *
 *                                                                                  *
 * Al              1      0.07387             -0.04958              0.11343         *
 * Al              2     -0.03988             -0.05914             -0.14941         *
 * Al              3      0.01121             -0.01921              0.14842         *
 * Al              4     -0.03372              0.05526             -0.10657         *
 * Al              5     -0.05790             -0.05981              0.08459         *
 * Al              6      0.06785              0.14499              0.03024         *
 * Ti              1     -0.01376              0.07494             -0.05020         *
 * Ti              2     -0.01800              0.09090              0.01952         *
 * Ti              3     -0.00572             -0.03919              0.00318         *
 * Ti              4     -0.02514              0.02739             -0.04937         *
 * Ti              5     -0.00256             -0.08723             -0.16729         *
 * Ti              6      0.06906              0.05033              0.01767         *
 * Ti              7     -0.08453              0.04974              0.01880         *
 * Ti              8     -0.00355             -0.04596             -0.08954         *
 * Ti              9      0.04641             -0.05209              0.07140         *
 * Ti             10     -0.09517              0.06270              0.04479         *
 * Ti             11     -0.03571             -0.08207             -0.06280         *
 * Ti             12     -0.04652             -0.01653              0.01213         *
 * Ti             13      0.02199              0.02889              0.04466         *
 * Ti             14      0.07451              0.02061              0.07262         *
 * Ti             15     -0.06239              0.10176             -0.05141         *
 * Ti             16     -0.09161              0.16908             -0.00764         *
 * Ti             17      0.02272             -0.01634             -0.06624         *
 * Ti             18      0.07032             -0.00529             -0.12699         *
 * Ti             19     -0.02138              0.04758              0.07467         *
 * Ti             20     -0.05011              0.10391             -0.13172         *
 * Ti             21      0.01347             -0.03483              0.01610         *
 * Ti             22     -0.03495              0.22426              0.16335         *
 * Ti             23      0.01160              0.02729             -0.12869         *
 * Ti             24     -0.04900             -0.01504              0.00831         *
 * Ti             25      0.03977              0.01215              0.03406         *
 * Ti             26      0.03389             -0.03312             -0.11943         *
 * Ti             27      0.13291             -0.00016              0.04341         *
 * Ti             28     -0.01907              0.02184              0.13448         *
 * Ti             29     -0.16666              0.02093              0.00742         *
 * Ti             30      0.09008             -0.02548              0.00709         *
 * Ti             31     -0.05299             -0.00383             -0.09376         *
 * Ti             32     -0.06503             -0.07616             -0.02195         *
 * Ti             33      0.00652             -0.21817              0.03515         *
 * Ti             34      0.02564             -0.06047             -0.02228         *
 * Ti             35      0.01546             -0.05335             -0.02015         *
 * Ti             36      0.00467             -0.05451             -0.03535         *
 * Ti             37     -0.00238             -0.01167             -0.03691         *
 * Ti             38      0.01571             -0.10639             -0.14621         *
 * Ti             39      0.00132             -0.01677              0.17153         *
 * Ti             40      0.01192              0.15086              0.05026         *
 * Ti             41     -0.06566              0.06278             -0.01854         *
 * Ti             42      0.05103              0.04157             -0.04545         *
 * Ti             43     -0.01114              0.00168             -0.08895         *
 * Ti             44     -0.05632             -0.03189             -0.07032         *
 * Ti             45     -0.10418             -0.09346             -0.04339         *
 * Ti             46     -0.00215             -0.04911              0.17729         *
 * V               1      0.10652              0.04513              0.15533         *
 * V               2      0.29877             -0.21969              0.19069         *
 *                                                                                  *
 ************************************************************************************

 ***************** Stress Tensor *****************
 *                                               *
 *          Cartesian components (GPa)           *
 * --------------------------------------------- *
 *             x             y             z     *
 *                                               *
 *  x      0.124651     -0.064237     -0.188461  *
 *  y     -0.064237      0.269212     -0.071103  *
 *  z     -0.188461     -0.071103     -0.410295  *
 *                                               *
 *  Pressure:    0.0055                          *
 *                                               *
 *************************************************

 *********** Constrained Stress Tensor ***********
 *                                               *
 *          Cartesian components (GPa)           *
 * --------------------------------------------- *
 *             x             y             z     *
 *                                               *
 *  x      0.196924     -0.000000     -0.000042  *
 *  y     -0.000000      0.196924      0.000016  *
 *  z     -0.000042      0.000016     -0.410304  *
 *                                               *
 *  Pressure:    0.0055                          *
 *                                               *
 *************************************************
  
 +------------+-------------+-------------+-----------------+ <-- min LBFGS
 |    Step    |   lambda    |   F.delta'  |    enthalpy     | <-- min LBFGS
 +------------+-------------+-------------+-----------------+ <-- min LBFGS
 |  previous  |    0.000000 |    0.292634 |   -78134.473998 | <-- min LBFGS
 | trial step |    1.000000 |    0.281525 |   -78134.477379 | <-- min LBFGS
 +------------+-------------+-------------+-----------------+ <-- min LBFGS
  
 LBFGS: finished iteration     1 with enthalpy= -7.81344774E+004 eV
  
 +-----------+-----------------+-----------------+------------+-----+ <-- LBFGS
 | Parameter |      value      |    tolerance    |    units   | OK? | <-- LBFGS
 +-----------+-----------------+-----------------+------------+-----+ <-- LBFGS
 |  dE/ion   |   6.261734E-005 |   2.000000E-005 |         eV | No  | <-- LBFGS
 |  |F|max   |   4.170002E-001 |   5.000000E-002 |       eV/A | No  | <-- LBFGS
 |  |dR|max  |   9.015000E-004 |   1.000000E-003 |          A | Yes | <-- LBFGS
 |   Smax    |   4.103037E-001 |   1.000000E-001 |        GPa | No  | <-- LBFGS
 +-----------+-----------------+-----------------+------------+-----+ <-- LBFGS
  

================================================================================
 Starting LBFGS iteration          2 ...
================================================================================
  
 +------------+-------------+-------------+-----------------+ <-- min LBFGS
 |    Step    |   lambda    |   F.delta'  |    enthalpy     | <-- min LBFGS
 +------------+-------------+-------------+-----------------+ <-- min LBFGS
 |  previous  |    0.000000 |    0.288896 |   -78134.477379 | <-- min LBFGS
 +------------+-------------+-------------+-----------------+ <-- min LBFGS
  

--------------------------------------------------------------------------------
 LBFGS: starting iteration         2 with trial guess (lambda=  1.000000)
--------------------------------------------------------------------------------
 
+---------------- MEMORY AND SCRATCH DISK ESTIMATES PER PROCESS --------------+
|                                                     Memory          Disk    |
| Model and support data                              557.2 MB         0.0 MB |
| Electronic energy minimisation requirements         184.1 MB         0.0 MB |
| Geometry minimisation requirements                  258.3 MB         0.0 MB |
|                                               ----------------------------- |
| Approx. total storage required per process          999.6 MB         0.0 MB |
|                                                                             |
| Requirements will fluctuate during execution and may exceed these estimates |
+-----------------------------------------------------------------------------+
 

                           -------------------------------
                                      Unit Cell
                           -------------------------------
        Real Lattice(A)              Reciprocal Lattice(1/A)
     4.3754939    -7.5785767     0.0000000        0.717997267  -0.414535973   0.000000016
     4.3754939     7.5785767     0.0000002        0.717997267   0.414535973   0.000000024
    -0.0000004    -0.0000001    13.8482724       -0.000000013  -0.000000005   0.453716185

                       Lattice parameters(A)       Cell Angles
                    a =      8.750987          alpha =   90.000000
                    b =      8.750987          beta  =   90.000000
                    c =     13.848272          gamma =  119.999993

                Current cell volume =           918.417864 A**3
                            density =             2.684676 amu/A**3
                                    =             4.458009 g/cm^3

                           -------------------------------
                                     Cell Contents
                           -------------------------------

            xxxxxxxxxxxxxxxxxxxxxxxxxxxxxxxxxxxxxxxxxxxxxxxxxxxxxxxxxxxxxxxxx
            x  Element         Atom        Fractional coordinates of atoms  x
            x                 Number           u          v          w      x
            x---------------------------------------------------------------x
            x  Al                1         0.219474   0.444627   0.915090   x
            x  Al                2         0.446433   0.884244   0.751483   x
            x  Al                3         0.886321   0.110994   0.248759   x
            x  Al                4         0.782029   0.221188   0.751930   x
            x  Al                5         0.885456   0.445954   0.584726   x
            x  Al                6         0.777762   0.547948   0.750468   x
            x  Ti                1         0.103512   0.232638   0.080561   x
            x  Ti                2         0.216447   0.108666   0.245506   x
            x  Ti                3         0.109863   0.219747   0.413422   x
            x  Ti                4         0.220605   0.113338   0.584669   x
            x  Ti                5         0.108865   0.221838   0.756197   x
            x  Ti                6         0.219255   0.114224   0.920398   x
            x  Ti                7         0.215604   0.447492   0.246705   x
            x  Ti                8         0.109170   0.558767   0.419062   x
            x  Ti                9         0.222236   0.439433   0.582496   x
            x  Ti               10         0.116389   0.555090   0.747560   x
            x  Ti               11         0.107286   0.880684   0.081340   x
            x  Ti               12         0.219097   0.775133   0.249086   x
            x  Ti               13         0.113492   0.891914   0.417002   x
            x  Ti               14         0.224554   0.783160   0.586607   x
            x  Ti               15         0.120247   0.889764   0.754333   x
            x  Ti               16         0.230906   0.775456   0.918145   x
            x  Ti               17         0.447652   0.220423   0.083090   x
            x  Ti               18         0.554614   0.108685   0.252128   x
            x  Ti               19         0.439675   0.220763   0.414448   x
            x  Ti               20         0.556633   0.109068   0.585483   x
            x  Ti               21         0.445807   0.216788   0.751314   x
            x  Ti               22         0.561769   0.102615   0.915321   x
            x  Ti               23         0.437348   0.553623   0.081146   x
            x  Ti               24         0.555385   0.445175   0.247280   x
            x  Ti               25         0.444186   0.556247   0.413516   x
            x  Ti               26         0.554963   0.443468   0.581625   x
            x  Ti               27         0.446535   0.553762   0.750591   x
            x  Ti               28         0.551476   0.441583   0.916183   x
            x  Ti               29         0.440280   0.890393   0.083507   x
            x  Ti               30         0.556931   0.782833   0.248427   x
            x  Ti               31         0.440167   0.887280   0.420809   x
            x  Ti               32         0.549514   0.773414   0.582512   x
            x  Ti               33         0.553061   0.778891   0.918846   x
            x  Ti               34         0.775079   0.217915   0.083997   x
            x  Ti               35         0.780717   0.226309   0.419599   x
            x  Ti               36         0.898298   0.123018   0.582361   x
            x  Ti               37         0.781116   0.557254   0.079211   x
            x  Ti               38         0.892292   0.446590   0.250479   x
            x  Ti               39         0.777567   0.556177   0.418055   x
            x  Ti               40         0.895486   0.436575   0.915233   x
            x  Ti               41         0.786013   0.896706   0.081463   x
            x  Ti               42         0.887815   0.780833   0.251110   x
            x  Ti               43         0.778385   0.893048   0.418317   x
            x  Ti               44         0.892752   0.775860   0.587578   x
            x  Ti               45         0.775542   0.894600   0.751299   x
            x  Ti               46         0.885375   0.776284   0.912408   x
            x  V                 1         0.116048   0.559748   0.078136   x
            x  V                 2         0.886516   0.111770   0.918984   x
            xxxxxxxxxxxxxxxxxxxxxxxxxxxxxxxxxxxxxxxxxxxxxxxxxxxxxxxxxxxxxxxxx


------------------------------------------------------------------------ <-- SCF
SCF loop      Energy           Fermi           Energy gain       Timer   <-- SCF
                               energy          per atom          (sec)   <-- SCF
------------------------------------------------------------------------ <-- SCF
Initial  -7.81343956E+004  0.00000000E+000                      3428.82  <-- SCF
      1  -7.81344961E+004  8.45914413E+000   1.86026100E-003    3480.15  <-- SCF
      2  -7.81344986E+004  8.45911018E+000   4.61725887E-005    3552.59  <-- SCF
      3  -7.81347363E+004  8.45880387E+000   4.40214416E-003    3620.10  <-- SCF
      4  -7.81345010E+004  8.46122070E+000  -4.35675563E-003    3686.24  <-- SCF
      5  -7.81344846E+004  8.46050374E+000  -3.03571284E-004    3757.04  <-- SCF
      6  -7.81344814E+004  8.46022336E+000  -5.96695721E-005    3823.99  <-- SCF
      7  -7.81344806E+004  8.45964624E+000  -1.50417004E-005    3892.78  <-- SCF
      8  -7.81344806E+004  8.46000614E+000  -2.43001805E-007    3963.03  <-- SCF
      9  -7.81344805E+004  8.46004522E+000  -1.05157469E-006    4028.10  <-- SCF
     10  -7.81344805E+004  8.46005839E+000  -7.08770446E-008    4095.82  <-- SCF
     11  -7.81344805E+004  8.45994246E+000  -8.72477929E-008    4150.49  <-- SCF
     12  -7.81344805E+004  8.45996828E+000  -3.96459008E-009    4202.63  <-- SCF
     13  -7.81344805E+004  8.45999900E+000  -7.47797632E-009    4242.90  <-- SCF
     14  -7.81344805E+004  8.46000119E+000  -4.12476860E-010    4282.45  <-- SCF
------------------------------------------------------------------------ <-- SCF
 
Final energy, E             =  -78134.40826722     eV
Final free energy (E-TS)    =  -78134.48051297     eV
(energies not corrected for finite basis set)
 
NB est. 0K energy (E-0.5TS)      =  -78134.44439010     eV
 

 ************************************** Forces **************************************
 *                                                                                  *
 *                           Cartesian components (eV/A)                            *
 * -------------------------------------------------------------------------------- *
 *                         x                    y                    z              *
 *                                                                                  *
 * Al              1      0.07240             -0.04833              0.11050         *
 * Al              2     -0.03865             -0.05778             -0.14573         *
 * Al              3      0.01111             -0.01878              0.14540         *
 * Al              4     -0.03442              0.05453             -0.10334         *
 * Al              5     -0.05648             -0.06005              0.08307         *
 * Al              6      0.06726              0.14409              0.03041         *
 * Ti              1     -0.01248              0.07264             -0.04869         *
 * Ti              2     -0.01687              0.08820              0.01899         *
 * Ti              3     -0.00484             -0.03876              0.00312         *
 * Ti              4     -0.02468              0.02669             -0.04838         *
 * Ti              5     -0.00111             -0.08668             -0.16432         *
 * Ti              6      0.06829              0.04981              0.01754         *
 * Ti              7     -0.08224              0.04813              0.01861         *
 * Ti              8     -0.00341             -0.04525             -0.08798         *
 * Ti              9      0.04633             -0.05179              0.07077         *
 * Ti             10     -0.09399              0.06171              0.04537         *
 * Ti             11     -0.03452             -0.08081             -0.06125         *
 * Ti             12     -0.04545             -0.01557              0.01216         *
 * Ti             13      0.02136              0.02835              0.04400         *
 * Ti             14      0.07288              0.02002              0.07139         *
 * Ti             15     -0.06214              0.10129             -0.05069         *
 * Ti             16     -0.08945              0.16671             -0.00845         *
 * Ti             17      0.02248             -0.01511             -0.06415         *
 * Ti             18      0.06882             -0.00428             -0.12554         *
 * Ti             19     -0.02105              0.04665              0.07267         *
 * Ti             20     -0.05021              0.10243             -0.13133         *
 * Ti             21      0.01316             -0.03385              0.01546         *
 * Ti             22     -0.03513              0.22096              0.16118         *
 * Ti             23      0.01129              0.02650             -0.12548         *
 * Ti             24     -0.04813             -0.01474              0.00793         *
 * Ti             25      0.03921              0.01189              0.03273         *
 * Ti             26      0.03269             -0.03150             -0.11658         *
 * Ti             27      0.13011             -0.00028              0.04256         *
 * Ti             28     -0.01907              0.02088              0.13215         *
 * Ti             29     -0.16554              0.02042              0.00638         *
 * Ti             30      0.08736             -0.02503              0.00660         *
 * Ti             31     -0.05199             -0.00414             -0.09220         *
 * Ti             32     -0.06357             -0.07528             -0.02259         *
 * Ti             33      0.00866             -0.21312              0.03449         *
 * Ti             34      0.02501             -0.05950             -0.02198         *
 * Ti             35      0.01495             -0.05172             -0.01950         *
 * Ti             36      0.00305             -0.05476             -0.03435         *
 * Ti             37     -0.00315             -0.01158             -0.03522         *
 * Ti             38      0.01567             -0.10343             -0.14425         *
 * Ti             39      0.00164             -0.01770              0.16836         *
 * Ti             40      0.01052              0.14903              0.04832         *
 * Ti             41     -0.06517              0.06209             -0.01769         *
 * Ti             42      0.04931              0.03960             -0.04449         *
 * Ti             43     -0.01178              0.00140             -0.08762         *
 * Ti             44     -0.05524             -0.03056             -0.06968         *
 * Ti             45     -0.10195             -0.09417             -0.04247         *
 * Ti             46     -0.00129             -0.04759              0.17474         *
 * V               1      0.10583              0.04563              0.14809         *
 * V               2      0.29462             -0.21750              0.19097         *
 *                                                                                  *
 ************************************************************************************

 ***************** Stress Tensor *****************
 *                                               *
 *          Cartesian components (GPa)           *
 * --------------------------------------------- *
 *             x             y             z     *
 *                                               *
 *  x      0.110248     -0.064450     -0.187822  *
 *  y     -0.064450      0.255339     -0.071185  *
 *  z     -0.187822     -0.071185     -0.374509  *
 *                                               *
 *  Pressure:    0.0030                          *
 *                                               *
 *************************************************

 *********** Constrained Stress Tensor ***********
 *                                               *
 *          Cartesian components (GPa)           *
 * --------------------------------------------- *
 *             x             y             z     *
 *                                               *
 *  x      0.182786     -0.000000     -0.000079  *
 *  y     -0.000000      0.182786      0.000030  *
 *  z     -0.000079      0.000030     -0.374518  *
 *                                               *
 *  Pressure:    0.0030                          *
 *                                               *
 *************************************************
  
 +------------+-------------+-------------+-----------------+ <-- min LBFGS
 |    Step    |   lambda    |   F.delta'  |    enthalpy     | <-- min LBFGS
 +------------+-------------+-------------+-----------------+ <-- min LBFGS
 |  previous  |    0.000000 |    0.288896 |   -78134.477379 | <-- min LBFGS
 | trial step |    1.000000 |    0.278568 |   -78134.480514 | <-- min LBFGS
 +------------+-------------+-------------+-----------------+ <-- min LBFGS
  
 LBFGS: finished iteration     2 with enthalpy= -7.81344805E+004 eV
  
 +-----------+-----------------+-----------------+------------+-----+ <-- LBFGS
 | Parameter |      value      |    tolerance    |    units   | OK? | <-- LBFGS
 +-----------+-----------------+-----------------+------------+-----+ <-- LBFGS
 |  dE/ion   |   5.805618E-005 |   2.000000E-005 |         eV | No  | <-- LBFGS
 |  |F|max   |   4.130106E-001 |   5.000000E-002 |       eV/A | No  | <-- LBFGS
 |  |dR|max  |   8.926827E-004 |   1.000000E-003 |          A | Yes | <-- LBFGS
 |   Smax    |   3.745184E-001 |   1.000000E-001 |        GPa | No  | <-- LBFGS
 +-----------+-----------------+-----------------+------------+-----+ <-- LBFGS
  

================================================================================
 Starting LBFGS iteration          3 ...
================================================================================
  
 +------------+-------------+-------------+-----------------+ <-- min LBFGS
 |    Step    |   lambda    |   F.delta'  |    enthalpy     | <-- min LBFGS
 +------------+-------------+-------------+-----------------+ <-- min LBFGS
 |  previous  |    0.000000 |    0.285873 |   -78134.480514 | <-- min LBFGS
 +------------+-------------+-------------+-----------------+ <-- min LBFGS
  

--------------------------------------------------------------------------------
 LBFGS: starting iteration         3 with trial guess (lambda=  1.000000)
--------------------------------------------------------------------------------

                           -------------------------------
                                      Unit Cell
                           -------------------------------
        Real Lattice(A)              Reciprocal Lattice(1/A)
     4.3749604    -7.5776526     0.0000001        0.718084821  -0.414586523   0.000000045
     4.3749604     7.5776526     0.0000006        0.718084821   0.414586523   0.000000070
    -0.0000011    -0.0000004    13.8517261       -0.000000037  -0.000000014   0.453603056

                       Lattice parameters(A)       Cell Angles
                    a =      8.749920          alpha =   90.000000
                    b =      8.749920          beta  =   90.000000
                    c =     13.851726          gamma =  119.999993

                Current cell volume =           918.422915 A**3
                            density =             2.684661 amu/A**3
                                    =             4.457985 g/cm^3

                           -------------------------------
                                     Cell Contents
                           -------------------------------

            xxxxxxxxxxxxxxxxxxxxxxxxxxxxxxxxxxxxxxxxxxxxxxxxxxxxxxxxxxxxxxxxx
            x  Element         Atom        Fractional coordinates of atoms  x
            x                 Number           u          v          w      x
            x---------------------------------------------------------------x
            x  Al                1         0.219498   0.444638   0.915107   x
            x  Al                2         0.446432   0.884227   0.751460   x
            x  Al                3         0.886326   0.110995   0.248781   x
            x  Al                4         0.782012   0.221187   0.751914   x
            x  Al                5         0.885451   0.445932   0.584739   x
            x  Al                6         0.777758   0.547985   0.750472   x
            x  Ti                1         0.103498   0.232645   0.080554   x
            x  Ti                2         0.216430   0.108674   0.245509   x
            x  Ti                3         0.109867   0.219740   0.413422   x
            x  Ti                4         0.220595   0.113336   0.584661   x
            x  Ti                5         0.108877   0.221825   0.756171   x
            x  Ti                6         0.219264   0.114247   0.920400   x
            x  Ti                7         0.215577   0.447479   0.246708   x
            x  Ti                8         0.109175   0.558760   0.419048   x
            x  Ti                9         0.222254   0.439437   0.582507   x
            x  Ti               10         0.116357   0.555076   0.747567   x
            x  Ti               11         0.107289   0.880664   0.081331   x
            x  Ti               12         0.219088   0.775119   0.249088   x
            x  Ti               13         0.113494   0.891924   0.417008   x
            x  Ti               14         0.224569   0.783180   0.586618   x
            x  Ti               15         0.120217   0.889763   0.754325   x
            x  Ti               16         0.230861   0.775458   0.918143   x
            x  Ti               17         0.447660   0.220426   0.083080   x
            x  Ti               18         0.554632   0.108701   0.252108   x
            x  Ti               19         0.439663   0.220765   0.414459   x
            x  Ti               20         0.556607   0.109071   0.585462   x
            x  Ti               21         0.445815   0.216786   0.751317   x
            x  Ti               22         0.561729   0.102637   0.915346   x
            x  Ti               23         0.437347   0.553630   0.081127   x
            x  Ti               24         0.555375   0.445161   0.247281   x
            x  Ti               25         0.444194   0.556259   0.413521   x
            x  Ti               26         0.554976   0.443472   0.581607   x
            x  Ti               27         0.446567   0.553794   0.750597   x
            x  Ti               28         0.551468   0.441581   0.916204   x
            x  Ti               29         0.440236   0.890355   0.083508   x
            x  Ti               30         0.556956   0.782851   0.248428   x
            x  Ti               31         0.440155   0.887267   0.420795   x
            x  Ti               32         0.549509   0.773388   0.582508   x
            x  Ti               33         0.553093   0.778863   0.918851   x
[...]
             Ti 7  -- Ti 38                  0.18        2.81382
             Ti 31 -- Ti 32                  0.14        2.81450
             Ti 5  -- V 2                    0.17        2.81554
             Ti 26 -- Ti 39                  0.15        2.81703
             Ti 5  -- Ti 6                   0.12        2.81762
             Ti 23 -- Ti 33                  0.15        2.81803
             Ti 16 -- Ti 33                  0.16        2.81817
             Ti 14 -- Ti 15                  0.13        2.82142
             Ti 1  -- Ti 7                   0.14        2.82350
              Al 1 -- Ti 23                  0.23        2.82411
             Ti 34 -- V 2                    0.17        2.82503
             Ti 40 -- V 1                    0.21        2.82605
             Ti 22 -- V 2                    0.27        2.82635
             Ti 14 -- Ti 31                  0.16        2.82635
              Al 3 -- Ti 34                  0.22        2.82688
             Ti 10 -- Ti 14                  0.19        2.82765
              Al 2 -- Ti 22                  0.20        2.82783
              Al 4 -- Ti 22                  0.23        2.82861
             Ti 7  -- V 1                    0.18        2.82882
             Ti 15 -- Ti 46                  0.15        2.82909
             Ti 27 -- Ti 28                  0.15        2.82960
              Al 2 -- Ti 14                  0.20        2.83151
             Ti 45 -- Ti 46                  0.13        2.83259
              Al 2 -- Ti 45                  0.24        2.83274
              Al 4 -- Ti 45                  0.26        2.83426
              Al 2 -- Ti 33                  0.24        2.83450
             Ti 23 -- V 1                    0.22        2.83451
             Ti 11 -- V 1                    0.28        2.83457
              Al 5 -- Ti 35                  0.23        2.83458
             Ti 20 -- Ti 31                  0.13        2.83621
             Ti 22 -- Ti 29                  0.15        2.83673
              Al 1 -- Ti 10                  0.24        2.83714
              Al 6 -- Ti 46                  0.24        2.83727
             Ti 11 -- Ti 37                  0.26        2.83788
             Ti 20 -- Ti 21                  0.21        2.83791
              Al 3 -- Ti 3                   0.21        2.83933
             Ti 3  -- Ti 36                  0.13        2.83984
              Al 4 -- V 2                    0.21        2.84012
              Al 2 -- Ti 16                  0.23        2.84025
              Al 3 -- Ti 41                  0.22        2.84058
             Ti 37 -- Ti 46                  0.17        2.84082
              Al 5 -- Ti 39                  0.22        2.84086
             Ti 4  -- Ti 9                   0.24        2.84113
             Ti 15 -- Ti 16                  0.15        2.84117
             Ti 12 -- Ti 29                  0.12        2.84127
             Ti 1  -- Ti 6                   0.16        2.84173
             Ti 6  -- Ti 17                  0.19        2.84233
             Ti 9  -- Ti 10                  0.19        2.84280
              Al 6 -- Ti 44                  0.26        2.84309
             Ti 18 -- Ti 19                  0.17        2.84313
             Ti 22 -- Ti 34                  0.13        2.84318
             Ti 11 -- Ti 16                  0.12        2.84465
             Ti 17 -- Ti 24                  0.14        2.84532
             Ti 7  -- Ti 12                  0.21        2.84686
              Al 1 -- Ti 16                  0.25        2.84706
              Al 2 -- Ti 32                  0.22        2.84766
             Ti 29 -- V 1                    0.23        2.84842
             Ti 28 -- Ti 37                  0.15        2.84880
             Ti 23 -- Ti 28                  0.16        2.85036
             Ti 2  -- Ti 3                   0.15        2.85131
             Ti 6  -- Ti 11                  0.15        2.85148
             Ti 17 -- Ti 28                  0.16        2.85158
             Ti 29 -- Ti 30                  0.14        2.85219
             Ti 34 -- Ti 41                  0.18        2.85240
             Ti 29 -- Ti 33                  0.12        2.85248
             Ti 11 -- Ti 12                  0.13        2.85276
              Al 5 -- Ti 44                  0.27        2.85372
              Al 5 -- Ti 10                  0.26        2.85419
             Ti 7  -- Ti 23                  0.13        2.85427
             Ti 15 -- Ti 21                  0.29        2.85566
             Ti 4  -- Ti 36                  0.22        2.85584
             Ti 17 -- Ti 29                  0.24        2.85654
             Ti 33 -- Ti 41                  0.13        2.85673
             Ti 21 -- Ti 28                  0.17        2.85755
             Ti 24 -- Ti 25                  0.13        2.85768
             Ti 18 -- Ti 30                  0.22        2.85888
             Ti 25 -- Ti 32                  0.15        2.85929
             Ti 2  -- Ti 17                  0.15        2.85943
             Ti 20 -- Ti 35                  0.17        2.85948
             Ti 13 -- Ti 19                  0.25        2.86035
             Ti 11 -- Ti 29                  0.23        2.86057
             Ti 12 -- Ti 38                  0.23        2.86062
             Ti 45 -- V 2                    0.20        2.86068
             Ti 8  -- Ti 38                  0.15        2.86079
             Ti 1  -- Ti 41                  0.21        2.86146
              Al 4 -- Ti 5                   0.26        2.86174
              Al 1 -- Ti 27                  0.22        2.86178
             Ti 42 -- Ti 43                  0.15        2.86182
              Al 4 -- Ti 36                  0.25        2.86209
             Ti 19 -- Ti 26                  0.16        2.86251
             Ti 1  -- Ti 23                  0.22        2.86361
             Ti 27 -- Ti 32                  0.16        2.86369
              Al 5 -- Ti 8                   0.20        2.86378
             Ti 4  -- Ti 13                  0.14        2.86400
             Ti 25 -- Ti 30                  0.13        2.86414
              Al 3 -- Ti 1                   0.21        2.86422
             Ti 2  -- Ti 11                  0.17        2.86496
             Ti 10 -- Ti 40                  0.17        2.86512
             Ti 18 -- Ti 34                  0.17        2.86544
             Ti 12 -- V 1                    0.17        2.86567
             Ti 21 -- Ti 22                  0.20        2.86570
             Ti 32 -- Ti 43                  0.16        2.86584
              Al 3 -- Ti 43                  0.21        2.86620
             Ti 18 -- Ti 29                  0.14        2.86684
             Ti 2  -- Ti 42                  0.21        2.86688
              Al 2 -- Ti 20                  0.23        2.86769
             Ti 8  -- Ti 12                  0.14        2.86840
             Ti 36 -- Ti 43                  0.15        2.86853
             Ti 17 -- Ti 18                  0.14        2.86888
             Ti 14 -- Ti 44                  0.22        2.86940
             Ti 14 -- Ti 20                  0.27        2.86940
              Al 3 -- Ti 30                  0.26        2.87000
             Ti 34 -- Ti 40                  0.13        2.87008
              Al 4 -- Al 5                   0.22        2.87049
             Ti 13 -- Ti 42                  0.13        2.87068
             Ti 33 -- Ti 45                  0.16        2.87106
              Al 6 -- Ti 40                  0.24        2.87122
             Ti 39 -- Ti 44                  0.14        2.87146
             Ti 6  -- Ti 15                  0.15        2.87188
              Al 6 -- Ti 28                  0.22        2.87283
             Ti 3  -- Ti 19                  0.23        2.87354
             Ti 41 -- Ti 46                  0.17        2.87392
             Ti 17 -- Ti 34                  0.26        2.87478
             Ti 41 -- Ti 42                  0.15        2.87522
             Ti 13 -- Ti 31                  0.24        2.87536
              Al 4 -- Ti 20                  0.25        2.87612
             Ti 11 -- Ti 46                  0.14        2.87613
             Ti 16 -- Ti 22                  0.17        2.87729
             Ti 19 -- Ti 24                  0.14        2.87739
             Ti 3  -- Ti 43                  0.24        2.87781
             Ti 8  -- Ti 9                   0.12        2.87782
              Al 5 -- Ti 26                  0.26        2.87788
             Ti 6  -- Ti 28                  0.22        2.87797
             Ti 3  -- Ti 13                  0.26        2.87802
             Ti 26 -- Ti 27                  0.18        2.87806
             Ti 12 -- Ti 13                  0.13        2.87830
              Al 5 -- Ti 36                  0.26        2.87876
             Ti 25 -- Ti 26                  0.12        2.87898
             Ti 4  -- Ti 21                  0.14        2.87924
             Ti 8  -- Ti 31                  0.24        2.87949
             Ti 23 -- Ti 24                  0.17        2.87995
             Ti 6  -- V 2                    0.24        2.88000
             Ti 3  -- Ti 9                   0.14        2.88087
              Al 4 -- Al 6                   0.22        2.88171
             Ti 37 -- Ti 40                  0.14        2.88232
              Al 2 -- Ti 27                  0.26        2.88245
             Ti 4  -- Ti 19                  0.14        2.88252
             Ti 34 -- Ti 38                  0.14        2.88283
              Al 2 -- Ti 15                  0.23        2.88323
              Al 1 -- Ti 6                   0.23        2.88326
              Al 2 -- Ti 10                  0.26        2.88405
             Ti 15 -- Ti 44                  0.15        2.88416
             Ti 9  -- Ti 32                  0.25        2.88432
             Ti 18 -- Ti 31                  0.15        2.88459
             Ti 35 -- Ti 38                  0.15        2.88468
             Ti 13 -- Ti 14                  0.17        2.88476
             Ti 39 -- Ti 42                  0.13        2.88485
             Ti 14 -- Ti 32                  0.21        2.88509
             Ti 5  -- Ti 10                  0.20        2.88553
             Ti 11 -- Ti 42                  0.13        2.88576
             Ti 3  -- Ti 7                   0.15        2.88585
             Ti 9  -- Ti 27                  0.16        2.88590
             Ti 3  -- Ti 4                   0.14        2.88678
             Ti 8  -- Ti 39                  0.25        2.88683
             Ti 27 -- Ti 33                  0.16        2.88686
             Ti 8  -- Ti 35                  0.24        2.88707
             Ti 9  -- Ti 25                  0.13        2.88716
             Ti 11 -- Ti 41                  0.27        2.88733
             Ti 30 -- Ti 43                  0.14        2.88769
             Ti 9  -- Ti 26                  0.29        2.88823
              Al 3 -- Ti 18                  0.26        2.88833
             Ti 5  -- Ti 36                  0.13        2.88885
             Ti 8  -- Ti 14                  0.14        2.88917
              Al 3 -- Ti 42                  0.25        2.88927
             Ti 44 -- Ti 45                  0.20        2.88957
             Ti 30 -- Ti 41                  0.16        2.89080
              Al 3 -- Ti 2                   0.27        2.89116
             Ti 18 -- Ti 35                  0.16        2.89133
             Ti 5  -- Ti 45                  0.20        2.89261
              Al 6 -- Ti 26                  0.22        2.89275
             Ti 2  -- Ti 19                  0.15        2.89307
             Ti 2  -- Ti 13                  0.13        2.89338
             Ti 24 -- Ti 37                  0.15        2.89423
             Ti 38 -- Ti 39                  0.13        2.89462
             Ti 7  -- Ti 25                  0.15        2.89476
             Ti 13 -- Ti 44                  0.13        2.89528
              Al 3 -- Ti 35                  0.19        2.89549
             Ti 10 -- Ti 16                  0.14        2.89590
             Ti 8  -- Ti 13                  0.27        2.89629
             Ti 35 -- Ti 39                  0.22        2.89682
             Ti 30 -- Ti 42                  0.27        2.89754
              Al 1 -- V 2                    0.24        2.89802
             Ti 7  -- Ti 8                   0.14        2.89922
             Ti 10 -- Ti 27                  0.18        2.89927
             Ti 4  -- Ti 5                   0.13        2.89936
              Al 6 -- Ti 21                  0.28        2.90029
             Ti 4  -- Ti 14                  0.20        2.90110
             Ti 35 -- Ti 43                  0.24        2.90116
             Ti 17 -- Ti 22                  0.15        2.90174
             Ti 32 -- Ti 45                  0.15        2.90187
             Ti 4  -- Ti 15                  0.12        2.90199
             Ti 26 -- Ti 32                  0.27        2.90316
              Al 3 -- Ti 38                  0.25        2.90391
             Ti 29 -- Ti 34                  0.22        2.90436
             Ti 23 -- Ti 30                  0.14        2.90497
              Al 3 -- Ti 7                   0.25        2.90572
             Ti 3  -- Ti 35                  0.22        2.90618
             Ti 4  -- Ti 26                  0.25        2.90637
             Ti 12 -- Ti 31                  0.13        2.90825
             Ti 37 -- Ti 38                  0.13        2.90845
             Ti 6  -- Ti 21                  0.15        2.90914
             Ti 25 -- Ti 31                  0.24        2.90914
              Al 5 -- Ti 20                  0.27        2.90943
             Ti 33 -- Ti 46                  0.28        2.90962
             Ti 4  -- Ti 44                  0.25        2.90983
              Al 1 -- Ti 28                  0.22        2.91021
             Ti 20 -- Ti 32                  0.26        2.91040
              Al 2 -- Ti 21                  0.24        2.91078
             Ti 1  -- Ti 2                   0.17        2.91108
             Ti 10 -- Ti 15                  0.25        2.91219
              Al 6 -- Ti 27                  0.26        2.91219
             Ti 19 -- Ti 25                  0.24        2.91230
             Ti 5  -- Ti 9                   0.10        2.91263
              Al 4 -- Ti 21                  0.26        2.91387
             Ti 24 -- Ti 39                  0.12        2.91487
             Ti 38 -- V 1                    0.15        2.91543
             Ti 25 -- Ti 39                  0.24        2.91549
             Ti 37 -- V 1                    0.28        2.91581
              Al 1 -- Ti 33                  0.25        2.91657
             Ti 27 -- Ti 45                  0.17        2.91745
             Ti 36 -- Ti 45                  0.21        2.91749
              Al 4 -- Ti 10                  0.27        2.91791
             Ti 30 -- Ti 31                  0.11        2.91822
             Ti 22 -- Ti 40                  0.21        2.91959
             Ti 12 -- Ti 42                  0.23        2.91985
             Ti 21 -- Ti 26                  0.14        2.92002
             Ti 19 -- Ti 31                  0.25        2.92043
             Ti 12 -- Ti 30                  0.24        2.92277
             Ti 28 -- Ti 46                  0.26        2.92316
             Ti 24 -- Ti 42                  0.28        2.92388
             Ti 33 -- V 2                    0.32        2.92498
             Ti 23 -- Ti 29                  0.24        2.92564
             Ti 26 -- Ti 44                  0.26        2.92581
             Ti 20 -- Ti 26                  0.23        2.92663
             Ti 37 -- Ti 42                  0.11        2.92736
             Ti 17 -- Ti 37                  0.27        2.92758
             Ti 46 -- V 2                    0.23        2.92798
             Ti 19 -- Ti 20                  0.14        2.92840
              Al 6 -- Ti 10                  0.27        2.92846
             Ti 12 -- Ti 18                  0.19        2.92887
             Ti 25 -- Ti 43                  0.25        2.92973
             Ti 2  -- Ti 12                  0.22        2.93104
             Ti 31 -- Ti 43                  0.25        2.93146
             Ti 5  -- Ti 27                  0.21        2.93194
             Ti 3  -- Ti 25                  0.24        2.93290
             Ti 43 -- Ti 44                  0.14        2.93308
             Ti 13 -- Ti 43                  0.27        2.93311
             Ti 28 -- Ti 33                  0.26        2.93355
             Ti 18 -- Ti 24                  0.25        2.93440
             Ti 20 -- Ti 36                  0.24        2.93514
             Ti 13 -- Ti 39                  0.27        2.93553
              Al 2 -- Al 4                   0.18        2.93769
             Ti 8  -- Ti 25                  0.24        2.93823
             Ti 6  -- Ti 46                  0.23        2.94080
             Ti 39 -- Ti 43                  0.25        2.94104
             Ti 34 -- Ti 37                  0.25        2.94154
             Ti 16 -- Ti 40                  0.17        2.94248
             Ti 24 -- Ti 38                  0.24        2.94313
             Ti 19 -- Ti 39                  0.26        2.94380
             Ti 21 -- Ti 27                  0.26        2.94553
             Ti 5  -- Ti 15                  0.22        2.94606
             Ti 38 -- Ti 42                  0.29        2.94632
             Ti 24 -- Ti 30                  0.29        2.94657
             Ti 37 -- Ti 41                  0.22        2.94742
             Ti 18 -- Ti 38                  0.22        2.94965
             Ti 2  -- Ti 24                  0.26        2.94970
             Ti 4  -- Ti 20                  0.20        2.95106
             Ti 17 -- Ti 23                  0.25        2.95879
              Al 5 -- Ti 14                  0.24        2.96093
             Ti 2  -- Ti 18                  0.26        2.96119
             Ti 2  -- Ti 7                   0.24        2.96171
             Ti 19 -- Ti 35                  0.27        2.96179
             Ti 7  -- Ti 30                  0.29        2.96430
             Ti 5  -- Ti 21                  0.26        2.96466
             Ti 3  -- Ti 8                   0.26        2.96619
             Ti 31 -- Ti 35                  0.23        2.97254
              Al 5 -- Ti 9                   0.25        2.97386
             Ti 11 -- Ti 17                  0.26        2.97418
             Ti 7  -- Ti 24                  0.22        2.98245
              Al 6 -- Ti 15                  0.24        2.98348
             Ti 32 -- Ti 44                  0.30        2.98756
             Ti 34 -- V 1                    0.26        2.98838
             Ti 23 -- Ti 37                  0.24        2.98927
             Ti 29 -- Ti 41                  0.22        2.99511
             Ti 9  -- Ti 14                  0.24        2.99761
             Ti 22 -- Ti 28                  0.24        2.99980
======================================================================


Writing analysis data to sqs_hcp_sc3x3x3_Ti46Al6V2_frame0_geomopti.castep_bin

Writing model to sqs_hcp_sc3x3x3_Ti46Al6V2_frame0_geomopti.check
 
 A BibTeX formatted list of references used in this run has been written to 
 sqs_hcp_sc3x3x3_Ti46Al6V2_frame0_geomopti.bib
 
Initialisation time =     19.73 s
Calculation time    =  31303.96 s
Finalisation time   =     32.24 s
Total time          =  31355.93 s
Peak Memory Use     = 1916956 kB
 
Overall parallel efficiency rating: Mediocre (58%)
 
Data was distributed by:-
G-vector (24-way); efficiency rating: Mediocre (59%)
k-point (14-way); efficiency rating: Excellent (98%)
