 +-------------------------------------------------+
 |                                                 |
 |      CCC   AA    SSS  TTTTT  EEEEE  PPPP        |
 |     C     A  A  S       T    E      P   P       |
 |     C     AAAA   SS     T    EEE    PPPP        |
 |     C     A  A     S    T    E      P           |
 |      CCC  A  A  SSS     T    EEEEE  P           |
 |                                                 |
 +-------------------------------------------------+
 |                                                 |
 | Welcome to Academic Release CASTEP version 24.1 |
 | Ab Initio Total Energy Program                  |
 |                                                 |
 | Authors:                                        |
 | M. Segall, M. Probert, C. Pickard, P. Hasnip,   |
 | S. Clark, K. Refson, J. R. Yates,               |
 | A. Bartok-Partay, M. Payne                      |
 |                                                 |
 | Contributors:                                   |
 | P. Lindan, P. Haynes, J. White, V. Milman,      |
 | N. Govind, M. Gibson, P. Tulip, V. Cocula,      |
 | B. Montanari, D. Quigley, M. Glover,            |
 | L. Bernasconi, A. Perlov, M. Plummer,           |
 | E. McNellis, J. Meyer, J. Gale, D. Jochym       |
 | J. Aarons, B. Walker, R. Gillen, D. Jones       |
 | T. Green, I. J. Bush, C. J. Armstrong,          |
 | E. J. Higgins, E. L. Brown, M. S. McFly,        |
 | J. Wilkins, B-C. Shih, P. J. P. Byrne,          |
 | R. J. Maurer, J. C. Womack, J. Dziedzic,        |
 | L. LeBlanc, T. K. Stenczel, J. Kermode,         |
 | S. Sturniolo, B. Shi, B. Durham, M. Evans,      |
 | M. J. Smith, A. Tamerus, Z. Hawkhead,           |
 | V. Ravindran, T. Hollins, S. A. Joyce,          |
 | R. T. Strong, A. M. Reilly                      |
 |                                                 |
 | Copyright (c) 2000 - 2023                       |
 |                                                 |
 |     Distributed under license from Cambridge    |
 |     Enterprise for academic use only.           |
 |                                                 |
 | Please cite                                     |
 |                                                 |
 |     "First principles methods using CASTEP"     |
 |                                                 |
 |         Zeitschrift fuer Kristallographie       |
 |           220(5-6) pp. 567-570 (2005)           |
 |                                                 |
 | S. J. Clark, M. D. Segall, C. J. Pickard,       |
 | P. J. Hasnip, M. J. Probert, K. Refson,         |
 | M. C. Payne                                     |
 |                                                 |
 |       in all publications arising from          |
 |              your use of CASTEP                 |
 |                                                 |
 +-------------------------------------------------+
 |                                                 |
 |              http://www.castep.org              |
 |                                                 |
 +-------------------------------------------------+



 Compiled for linux_x86_64_gfortran10 on Tue, 02 May 2023 15:31:46 +0100
 from code version db08e394c+  default  Mon May 1 16:40:39 2023 +0100
 Compiler: GNU Fortran 10.2.0; Optimisation: fast
 Comms   : Open MPI v4.0.5
 MATHLIBS: openblas (LAPACK version 3.9.0)
 FFT Lib : fftw3 version fftw-3.3.8-sse2-avx-avx2-avx2_128
 Fundamental constants values: CODATA 2018

 Run started: Mon, 05 Feb 2024 18:40:49 +0000
 Info: number of up-spin electrons is not equal to the
       number of down-spins but spin_polarized=false
     - consider setting spin_polarized=true.

 Atomic calculation performed for Al: 1s2 2s2 2p6 3s2 3p1

 Converged in 54 iterations to an ae energy of -6603.783 eV

   ============================================================                
   | Pseudopotential Report - Date of generation  5-02-2024   |                
   ------------------------------------------------------------                
   | Element: Al Ionic charge:  3.00 Level of theory: PBE     |                
   | Atomic Solver: Koelling-Harmon                           |                
   |                                                          |                
   |               Reference Electronic Structure             |                
   |         Orbital         Occupation         Energy        |                
   |            3s              2.000           -0.285        |                
   |            3p              1.000           -0.100        |                
   |                                                          |                
   |                 Pseudopotential Definition               |                
   |        Beta     l      e      Rc     scheme   norm       |                
   |          1      0   -0.285   2.192     qc      0         |                
   |          2      0    0.250   2.192     qc      0         |                
   |          3      1   -0.100   2.192     qc      0         |                
   |          4      1    0.250   2.192     qc      0         |                
   |          5      2    0.000   2.000     qc      0         |                
   |          6      2    0.250   2.000     qc      0         |                
   |         loc     3    0.000   2.192     pn      0         |                
   |                                                          |                
   | Augmentation charge Rinner = 1.398                       |                
   | Partial core correction Rc = 1.398                       |                
   ------------------------------------------------------------                
   | "3|2.2|2.2|1.4|4|5|5|30:31:32U2U2"                       |                
   ------------------------------------------------------------                
   |      Author: Chris J. Pickard, Cambridge University      |                
   ============================================================                

 Atomic calculation performed for Ti: 1s2 2s2 2p6 3s2 3p6 3d2 4s2

 Converged in 79 iterations to an ae energy of -23226.658 eV

   ============================================================                
   | Pseudopotential Report - Date of generation  5-02-2024   |                
   ------------------------------------------------------------                
   | Element: Ti Ionic charge: 12.00 Level of theory: PBE     |                
   | Atomic Solver: Koelling-Harmon                           |                
   |                                                          |                
   |               Reference Electronic Structure             |                
   |         Orbital         Occupation         Energy        |                
   |            3s              2.000           -2.302        |                
   |            3p              6.000           -1.428        |                
   |            4s              2.000           -0.164        |                
   |            3d              2.000           -0.157        |                
   |                                                          |                
   |                 Pseudopotential Definition               |                
   |        Beta     l      e      Rc     scheme   norm       |                
   |          1      0   -2.302   1.793     qc      0         |                
   |          2      0   -0.164   1.793     qc      0         |                
   |          3      0    0.250   1.793     qc      0         |                
   |          4      1   -1.428   1.793     qc      0         |                
   |          5      1    0.250   1.793     qc      0         |                
   |          6      2   -0.157   1.793     qc      0         |                
   |          7      2    0.250   1.793     qc      0         |                
   |         loc     3    0.000   1.793     pn      0         |                
   |                                                          |                
   | Augmentation charge Rinner = 1.263                       |                
   | Partial core correction Rc = 1.263                       |                
   ------------------------------------------------------------                
   | "3|1.8|9|10|11|30U:40:31:32(qc=5.5)"                     |                
   ------------------------------------------------------------                
   |      Author: Chris J. Pickard, Cambridge University      |                
   ============================================================                

 Atomic calculation performed for V: 1s2 2s2 2p6 3s2 3p6 3d3 4s2

 Converged in 81 iterations to an ae energy of -25823.733 eV

   ============================================================                
   | Pseudopotential Report - Date of generation  5-02-2024   |                
   ------------------------------------------------------------                
   | Element: V Ionic charge: 13.00 Level of theory: PBE      |                
   | Atomic Solver: Koelling-Harmon                           |                
   |                                                          |                
   |               Reference Electronic Structure             |                
   |         Orbital         Occupation         Energy        |                
   |            3s              2.000           -2.581        |                
   |            3p              6.000           -1.618        |                
   |            3d              3.000           -0.190        |                
   |            4s              2.000           -0.173        |                
   |                                                          |                
   |                 Pseudopotential Definition               |                
   |        Beta     l      e      Rc     scheme   norm       |                
   |          1      0   -2.581   1.803     qc      0         |                
   |          2      0   -0.173   1.803     qc      0         |                
   |          3      0    0.250   1.803     qc      0         |                
   |          4      1   -1.618   1.803     qc      0         |                
   |          5      1    0.250   1.803     qc      0         |                
   |          6      2   -0.190   1.803     qc      0         |                
   |          7      2    0.250   1.803     qc      0         |                
   |         loc     3    0.000   1.803     pn      0         |                
   |                                                          |                
   | Augmentation charge Rinner = 0.600                       |                
   | Partial core correction Rc = 0.600                       |                
   ------------------------------------------------------------                
   | "3|1.8|1.8|0.6|12|14|16|30U:40:31:32(qc=7)"              |                
   ------------------------------------------------------------                
   |      Author: Chris J. Pickard, Cambridge University      |                
   ============================================================                

 Pseudo atomic calculation performed for Al 3s2 3p1

 Converged in 20 iterations to a total energy of -107.1308 eV

 Pseudo atomic calculation performed for Ti 3s2 3p6 3d2 4s2

 Converged in 45 iterations to a total energy of -1587.0236 eV

 Pseudo atomic calculation performed for V 3s2 3p6 3d3 4s2

 Converged in 46 iterations to a total energy of -2065.7874 eV
 Calculation parallelised over 288 processes.
 Data is distributed by G-vector(16-way) and k-point(18-way)

 ************************************ Title ************************************
 

 ***************************** General Parameters ******************************
  
 output verbosity                               : normal  (1)
 write checkpoint data to                       : sqs_bcc_sc4x4x4_Ti55Al7V2_frame0_geomopti.check
 type of calculation                            : geometry optimization
 stress calculation                             : on
 density difference calculation                 : off
 electron localisation func (ELF) calculation   : off
 Hirshfeld analysis                             : off
 polarisation (Berry phase) analysis            : off
 molecular orbital projected DOS                : off
 deltaSCF calculation                           : off
 unlimited duration calculation
 timing information                             : on
 memory usage estimate                          : on
 write extra output files                       : on
 write final potential to formatted file        : off
 write final density to formatted file          : off
 write BibTeX reference list                    : on
 write OTFG pseudopotential files               : on
 write electrostatic potential file             : on
 write bands file                               : on
 checkpoint writing                             : both castep_bin and check files
  
 output         length unit                     : A
 output           mass unit                     : amu
 output           time unit                     : ps
 output         charge unit                     : e
 output           spin unit                     : hbar/2
 output         energy unit                     : eV
 output          force unit                     : eV/A
 output       velocity unit                     : A/ps
 output       pressure unit                     : GPa
 output     inv_length unit                     : 1/A
 output      frequency unit                     : cm-1
 output force constant unit                     : eV/A**2
 output         volume unit                     : A**3
 output   IR intensity unit                     : (D/A)**2/amu
 output         dipole unit                     : D
 output         efield unit                     : eV/A/e
 output        entropy unit                     : J/mol/K
 output    efield chi2 unit                     : pm/V
  
 wavefunctions paging                           : none
 random number generator seed                   :  184049106
 data distribution                              : k-point only
 optimization strategy                          : maximize speed(+++)

 *********************** Exchange-Correlation Parameters ***********************
  
 using functional                               : Perdew Burke Ernzerhof
 relativistic treatment                         : Koelling-Harmon
 DFT+D: Semi-empirical dispersion correction    : off

 ************************* Pseudopotential Parameters **************************
  
 pseudopotential representation                 : reciprocal space
 <beta|phi> representation                      : reciprocal space
 spin-orbit coupling                            : off

 **************************** Basis Set Parameters *****************************
  
 plane wave basis set cut-off                   :   800.0000   eV
 size of standard grid                          :     2.0000
 size of   fine   gmax                          :    28.9810   1/A
 largest prime factor in FFT                    :          5
 finite basis set correction                    : automatic
 number of sample energies                      :          3
           sample  spacing                      :     5.0000   eV

 **************************** Electronic Parameters ****************************
  
 number of  electrons                           :  707.0    
 net charge of system                           :  0.000    
 treating system as non-spin-polarized
 number of bands                                :        389

 ********************* Electronic Minimization Parameters **********************
  
 Method: Treating system as metallic with density mixing treatment of electrons,
         and number of  SD  steps               :          1
         and number of  CG  steps               :          4
  
 total energy / atom convergence tol.           : 0.1000E-07   eV
 eigen-energy convergence tolerance             : 0.1645E-08   eV
 max force / atom convergence tol.              : ignored
 convergence tolerance window                   :          3   cycles
 max. number of SCF cycles                      :         30
 number of fixed-spin iterations                :         10
 smearing scheme                                : Gaussian
 smearing width                                 : 0.5000E-01   eV
 Fermi energy convergence tolerance             : 0.2721E-13   eV
 periodic dipole correction                     : NONE

 ************************** Density Mixing Parameters **************************
  
 density-mixing scheme                          : Pulay
 max. length of mixing history                  :         20
 charge density mixing amplitude                : 0.8000    
 cut-off energy for mixing                      :  800.0       eV
 charge density mixing g-vector                 :  1.500       1/A

 *********************** Population Analysis Parameters ************************
  
 Population analysis with cutoff                :  3.000       A
 Population analysis output                     : summary and pdos components

 ********************** Geometry Optimization Parameters ***********************
  
 optimization method                            : LBFGS
 max. no. of LBFGS updates                      : unbounded
 variable cell method                           : fixed basis quality
 max. number of steps                           :         30
 estimated bulk modulus                         :  500.0       GPa
 estimated <frequency>                          :  1668.       cm-1
 geom line minimiser                            : on
 with line minimiser tolerance                  :     0.4000
 total energy convergence tolerance             : 0.2000E-04   eV/atom
        max ionic |force| tolerance             : 0.5000E-01   eV/A
 max ionic |displacement| tolerance             : 0.1000E-02   A
   max |stress component| tolerance             : 0.1000       GPa
 convergence tolerance window                   :          2   steps
 backup results every                           :          5   steps
 write geom trajectory file                     : on

 ******************************* Developer Code ********************************
  
 PARALLEL: kpoint=18 : ENDPARALLEL
 no_improve_wvfn

 *******************************************************************************
  

                           -------------------------------
                                      Unit Cell
                           -------------------------------
        Real Lattice(A)                      Reciprocal Lattice(1/A)
    -6.4806360     6.4806360     6.4806360        0.000000000   0.484766102   0.484766102
     6.4806360    -6.4806360     6.4806360        0.484766102   0.000000000   0.484766102
     6.4806360     6.4806360    -6.4806360        0.484766102   0.484766102   0.000000000

                       Lattice parameters(A)       Cell Angles
                    a =     11.224791          alpha =  109.471221
                    b =     11.224791          beta  =  109.471221
                    c =     11.224791          gamma =  109.471221

                       Current cell volume =          1088.711670       A**3
                                   density =             2.685228   AMU/A**3
                                           =             4.458926     g/cm^3

                           -------------------------------
                                     Cell Contents
                           -------------------------------
                         Total number of ions in cell =   64
                      Total number of species in cell =    3
                        Max number of any one species =   55

            xxxxxxxxxxxxxxxxxxxxxxxxxxxxxxxxxxxxxxxxxxxxxxxxxxxxxxxxxxxx
            x  Element    Atom        Fractional coordinates of atoms  x
            x            Number           u          v          w      x
            x----------------------------------------------------------x
            x  Al           1         0.064065   0.058809   0.051875   x 
            x  Al           2        -0.010486   0.728407   0.726430   x 
            x  Al           3         0.232692  -0.027327  -0.034924   x 
            x  Al           4         0.297774   0.806627   0.292333   x 
            x  Al           5         0.447685   0.691045  -0.050392   x 
            x  Al           6         0.745965   0.016679   0.742260   x 
            x  Al           7         0.788407   0.310575   0.789111   x 
            x  Ti           1        -0.025317  -0.020933   0.225253   x 
            x  Ti           2         0.005141  -0.015458   0.499437   x 
            x  Ti           3         0.018375   0.018220   0.773549   x 
            x  Ti           4         0.004502   0.260412  -0.000792   x 
            x  Ti           5         0.033219   0.265913   0.266057   x 
            x  Ti           6        -0.049061   0.196397   0.449659   x 
            x  Ti           7        -0.026079   0.233628   0.719743   x 
            x  Ti           8         0.042113   0.543894   0.038822   x 
            x  Ti           9        -0.031411   0.478438   0.238361   x 
            x  Ti          10        -0.004112   0.483105   0.509559   x 
            x  Ti          11        -0.001456   0.768853   0.005136   x 
            x  Ti          12         0.031356   0.768512   0.267302   x 
            x  Ti          13        -0.038160   0.705320   0.461198   x 
            x  Ti          14         0.255762   0.023262   0.255315   x 
            x  Ti          15         0.281590   0.019640   0.522401   x 
            x  Ti          16         0.273207   0.263969   0.032740   x 
            x  Ti          17         0.299575   0.309712   0.304307   x 
            x  Ti          18         0.221814   0.232831   0.485643   x 
            x  Ti          19         0.243622   0.231634   0.748889   x 
            x  Ti          20         0.228166   0.467272  -0.034722   x 
            x  Ti          21         0.248422   0.522016   0.247782   x 
            x  Ti          22         0.272206   0.521567   0.514065   x 
            x  Ti          23         0.196522   0.454773   0.708073   x 
            x  Ti          24         0.255450   0.751394   0.014160   x 
            x  Ti          25         0.227287   0.737899   0.478501   x 
            x  Ti          26         0.249811   0.739966   0.741606   x 
            x  Ti          27         0.497966  -0.023730   0.000158   x 
            x  Ti          28         0.522829   0.021053   0.284387   x 
            x  Ti          29         0.549058   0.051129   0.549036   x 
            x  Ti          30         0.467887  -0.021286   0.738455   x 
            x  Ti          31         0.446299   0.186921  -0.052976   x 
            x  Ti          32         0.482151   0.231590   0.225146   x 
            x  Ti          33         0.503872   0.268119   0.505538   x 
            x  Ti          34         0.523379   0.267933   0.772201   x 
            x  Ti          35         0.499905   0.482140  -0.000617   x 
            x  Ti          36         0.520157   0.527336   0.282590   x 
            x  Ti          37         0.544350   0.553391   0.551494   x 
            x  Ti          38         0.466028   0.477502   0.730460   x 
            x  Ti          39         0.480615   0.734068   0.219445   x 
            x  Ti          40         0.500737   0.763188   0.497664   x 
            x  Ti          41         0.528946   0.766136   0.768891   x 
            x  Ti          42         0.785066   0.024818   0.013612   x 
            x  Ti          43         0.699567  -0.056602   0.194125   x 
            x  Ti          44         0.737087  -0.024285   0.466514   x 
            x  Ti          45         0.722494   0.234272  -0.021864   x 
            x  Ti          46         0.747444   0.233939   0.247716   x 
            x  Ti          47         0.770856   0.270791   0.527906   x 
            x  Ti          48         0.779475   0.521902   0.020064   x 
            x  Ti          49         0.700750   0.447777   0.201863   x 
            x  Ti          50         0.730602   0.481437   0.475124   x 
            x  Ti          51         0.758470   0.530790   0.752893   x 
            x  Ti          52         0.716167   0.727705  -0.020938   x 
            x  Ti          53         0.753944   0.734842   0.254232   x 
            x  Ti          54         0.770674   0.765353   0.541597   x 
            x  Ti          55         0.804421   0.813005   0.807783   x 
            x  V            1         0.009478   0.511384   0.776783   x 
            x  V            2         0.200684  -0.049668   0.701980   x 
            xxxxxxxxxxxxxxxxxxxxxxxxxxxxxxxxxxxxxxxxxxxxxxxxxxxxxxxxxxxx


                         No user defined ionic velocities

                           -------------------------------
                                   Details of Species
                           -------------------------------

                               Mass of species in AMU
                                    Al   26.9815400
                                    Ti   47.8670000
                                    V   50.9415000

                          Electric Quadrupole Moment (Barn)
                                    Al    0.1466000 Isotope 27
                                    Ti    0.3020000 Isotope 47
                                    V   -0.0520000 Isotope 51

                          Files used for pseudopotentials:
                                    Al 3|2.2|2.2|1.4|4|5|5|30:31:32U2U2
                                    Ti 3|1.8|9|10|11|30U:40:31:32(qc=5.5)
                                    V 3|1.8|1.8|0.6|12|14|16|30U:40:31:32(qc=7)

                           -------------------------------
                              k-Points For BZ Sampling
                           -------------------------------
                       MP grid size for SCF calculation is  6  6  6
                            with an offset of   0.000  0.000  0.000
                       Number of kpoints used =           108

                           -------------------------------
                               Symmetry and Constraints
                           -------------------------------

                      Maximum deviation from symmetry =  0.00000         ANG

                      Number of symmetry operations   =           1
                      Number of ionic constraints     =           3
                      Point group of crystal =     1: C1, 1, 1
                      Space group of crystal =     1: P1, P 1

             Set iprint > 1 for details on symmetry rotations/translations

                         Centre of mass is constrained
             Set iprint > 1 for details of linear ionic constraints

                         Number of cell constraints= 5
                         Cell constraints are:  1 1 1 0 0 0

                         External pressure/stress (GPa)
                          0.00000   0.00000   0.00000
                                    0.00000   0.00000
                                              0.00000
 
+---------------- MEMORY AND SCRATCH DISK ESTIMATES PER PROCESS --------------+
|                                                     Memory          Disk    |
| Baseline code, static data and system overhead      591.0 MB         0.0 MB |
| BLAS internal memory storage                          0.0 MB         0.0 MB |
| Model and support data                              824.0 MB         0.0 MB |
| Electronic energy minimisation requirements         328.4 MB         0.0 MB |
| Force calculation requirements                       11.6 MB         0.0 MB |
| Stress calculation requirements                      12.8 MB         0.0 MB |
|                                               ----------------------------- |
| Approx. total storage required per process         1743.4 MB         0.0 MB |
|                                                                             |
| Requirements will fluctuate during execution and may exceed these estimates |
+-----------------------------------------------------------------------------+
Calculating finite basis set correction with  3 cut-off energies.
Calculating total energy with cut-off of  790.000 eV.
------------------------------------------------------------------------ <-- SCF
SCF loop      Energy           Fermi           Energy gain       Timer   <-- SCF
                               energy          per atom          (sec)   <-- SCF
------------------------------------------------------------------------ <-- SCF
Initial  -8.31844375E+004  0.00000000E+000                        30.53  <-- SCF
      1  -9.02199832E+004  1.16722366E+001   1.09930402E+002     181.72  <-- SCF
      2  -9.24608694E+004  9.03590182E+000   3.50138469E+001     303.23  <-- SCF
      3  -9.25904590E+004  8.84889980E+000   2.02483702E+000     429.25  <-- SCF
      4  -9.26122471E+004  8.03334386E+000   3.40438486E-001     582.64  <-- SCF
      5  -9.25960742E+004  8.24522352E+000  -2.52701407E-001     741.99  <-- SCF
      6  -9.25915111E+004  8.43371826E+000  -7.12977244E-002     893.33  <-- SCF
      7  -9.25888630E+004  8.44912150E+000  -4.13774258E-002    1048.67  <-- SCF
      8  -9.25889136E+004  8.41403197E+000   7.90315994E-004    1200.31  <-- SCF
      9  -9.25885434E+004  8.38911390E+000  -5.78288466E-003    1344.55  <-- SCF
     10  -9.25885979E+004  8.38077467E+000   8.51425821E-004    1499.85  <-- SCF
     11  -9.25884881E+004  8.37598118E+000  -1.71651621E-003    1643.59  <-- SCF
     12  -9.25884973E+004  8.37593990E+000   1.44657997E-004    1798.97  <-- SCF
     13  -9.25884911E+004  8.37495464E+000  -9.69395314E-005    1940.97  <-- SCF
     14  -9.25884889E+004  8.37481632E+000  -3.48425343E-005    2090.29  <-- SCF
     15  -9.25884892E+004  8.37483870E+000   4.02596106E-006    2240.58  <-- SCF
     16  -9.25884888E+004  8.37489514E+000  -5.57308107E-006    2383.81  <-- SCF
     17  -9.25884889E+004  8.37491203E+000   8.61261157E-007    2534.72  <-- SCF
     18  -9.25884888E+004  8.37497223E+000  -8.52485841E-007    2672.31  <-- SCF
     19  -9.25884888E+004  8.37497698E+000   4.23694297E-008    2800.75  <-- SCF
     20  -9.25884888E+004  8.37497460E+000  -4.29177661E-008    2913.77  <-- SCF
     21  -9.25884888E+004  8.37497201E+000  -1.10653363E-009    2999.94  <-- SCF
     22  -9.25884888E+004  8.37497120E+000  -6.67052422E-011    3085.75  <-- SCF
------------------------------------------------------------------------ <-- SCF
 
Final energy, E             =  -92588.37135844     eV
Final free energy (E-TS)    =  -92588.48880629     eV
(energies not corrected for finite basis set)
 
NB est. 0K energy (E-0.5TS)      =  -92588.43008236     eV
 
Calculating total energy with cut-off of  795.000 eV.
------------------------------------------------------------------------ <-- SCF
SCF loop      Energy           Fermi           Energy gain       Timer   <-- SCF
                               energy          per atom          (sec)   <-- SCF
------------------------------------------------------------------------ <-- SCF
Initial  -9.25883714E+004  0.00000000E+000                      3111.54  <-- SCF
      1  -9.25884900E+004  8.37494706E+000   1.85312665E-003    3222.41  <-- SCF
      2  -9.25884900E+004  8.37494700E+000   7.75283127E-008    3345.46  <-- SCF
      3  -9.25884905E+004  8.37500802E+000   8.67971531E-006    3490.52  <-- SCF
      4  -9.25884899E+004  8.37498823E+000  -9.28487087E-006    3630.92  <-- SCF
      5  -9.25884899E+004  8.37496981E+000   3.48595795E-007    3764.61  <-- SCF
      6  -9.25884899E+004  8.37497180E+000   2.04400330E-008    3876.65  <-- SCF
      7  -9.25884899E+004  8.37496352E+000  -8.67361497E-009    3966.16  <-- SCF
      8  -9.25884899E+004  8.37496319E+000  -5.68444672E-010    4049.62  <-- SCF
------------------------------------------------------------------------ <-- SCF
 
Final energy, E             =  -92588.37249895     eV
Final free energy (E-TS)    =  -92588.48994716     eV
(energies not corrected for finite basis set)
 
NB est. 0K energy (E-0.5TS)      =  -92588.43122306     eV
 
Calculating total energy with cut-off of  800.000 eV.
------------------------------------------------------------------------ <-- SCF
SCF loop      Energy           Fermi           Energy gain       Timer   <-- SCF
                               energy          per atom          (sec)   <-- SCF
------------------------------------------------------------------------ <-- SCF
Initial  -9.25883725E+004  0.00000000E+000                      4075.06  <-- SCF
      1  -9.25884911E+004  8.37497784E+000   1.85275239E-003    4185.53  <-- SCF
      2  -9.25884911E+004  8.37497760E+000   3.23615745E-007    4311.58  <-- SCF
      3  -9.25884943E+004  8.37503856E+000   5.07273949E-005    4456.55  <-- SCF
      4  -9.25884910E+004  8.37486321E+000  -5.19674484E-005    4598.09  <-- SCF
      5  -9.25884910E+004  8.37496777E+000  -2.01336529E-007    4746.99  <-- SCF
      6  -9.25884910E+004  8.37495601E+000   1.85592352E-007    4878.94  <-- SCF
      7  -9.25884910E+004  8.37496722E+000  -1.33043122E-008    4996.53  <-- SCF
      8  -9.25884910E+004  8.37496359E+000  -1.80539188E-008    5089.73  <-- SCF
      9  -9.25884910E+004  8.37496399E+000  -1.62219415E-010    5174.96  <-- SCF
     10  -9.25884910E+004  8.37496380E+000  -6.03827453E-010    5258.19  <-- SCF
------------------------------------------------------------------------ <-- SCF
 
Final energy, E             =  -92588.37356279     eV
Final free energy (E-TS)    =  -92588.49101065     eV
(energies not corrected for finite basis set)
 
NB est. 0K energy (E-0.5TS)      =  -92588.43228672     eV
 
 For future reference: finite basis dEtot/dlog(Ecut) =      -0.174650eV
 Total energy corrected for finite basis set =  -92588.491013 eV
 
+---------------- MEMORY AND SCRATCH DISK ESTIMATES PER PROCESS --------------+
|                                                     Memory          Disk    |
| Model and support data                              831.3 MB         0.0 MB |
| Electronic energy minimisation requirements         328.4 MB         0.0 MB |
| Geometry minimisation requirements                  459.2 MB         0.0 MB |
|                                               ----------------------------- |
| Approx. total storage required per process         1619.0 MB         0.0 MB |
|                                                                             |
| Requirements will fluctuate during execution and may exceed these estimates |
+-----------------------------------------------------------------------------+
 

 ************************************** Forces **************************************
 *                                                                                  *
 *                           Cartesian components (eV/A)                            *
 * -------------------------------------------------------------------------------- *
 *                         x                    y                    z              *
 *                                                                                  *
 * Al              1      0.09863             -0.04699             -0.12547         *
 * Al              2      0.13040              0.13688             -0.04777         *
 * Al              3      0.07759              0.32818              0.05965         *
 * Al              4     -0.00445             -0.10641             -0.01753         *
 * Al              5     -0.03132             -0.10417              0.08390         *
 * Al              6      0.06302              0.30627              0.01357         *
 * Al              7      0.01892              0.19641             -0.11782         *
 * Ti              1     -0.35158              0.23370              0.11803         *
 * Ti              2      0.05403              0.14078             -0.02055         *
 * Ti              3      0.26469             -0.06674             -0.07042         *
 * Ti              4     -0.17705             -0.01547             -0.18156         *
 * Ti              5      0.16368             -0.27518             -0.01136         *
 * Ti              6     -0.14271             -0.24511             -0.08834         *
 * Ti              7      0.01469              0.10853             -0.06836         *
 * Ti              8      0.13240              0.13452              0.15951         *
 * Ti              9      0.00211              0.08127             -0.08890         *
 * Ti             10      0.00444              0.02269              0.03979         *
 * Ti             11     -0.00072             -0.05024              0.19600         *
 * Ti             12      0.06946             -0.10072             -0.14432         *
 * Ti             13      0.01282             -0.14471              0.06099         *
 * Ti             14      0.11357             -0.15380              0.04934         *
 * Ti             15      0.16077             -0.17412              0.09486         *
 * Ti             16      0.12376             -0.16129              0.06289         *
 * Ti             17      0.14401              0.14400              0.26939         *
 * Ti             18     -0.10432              0.14173             -0.14315         *
 * Ti             19      0.10571              0.04438              0.17960         *
 * Ti             20     -0.01730             -0.10145             -0.00226         *
 * Ti             21     -0.00795              0.02281              0.01676         *
 * Ti             22      0.17872             -0.04755              0.10013         *
 * Ti             23     -0.14928             -0.21218             -0.08985         *
 * Ti             24     -0.21606             -0.18835             -0.08556         *
 * Ti             25     -0.12035              0.01136             -0.12693         *
 * Ti             26      0.16607              0.24864              0.10880         *
 * Ti             27     -0.24382             -0.09720              0.13079         *
 * Ti             28      0.08212             -0.10036              0.15472         *
 * Ti             29      0.22189             -0.08564              0.30659         *
 * Ti             30     -0.10374              0.06805             -0.15316         *
 * Ti             31     -0.07698             -0.11658             -0.10235         *
 * Ti             32     -0.02137              0.15923             -0.04277         *
 * Ti             33     -0.12375              0.15229             -0.12308         *
 * Ti             34      0.02014             -0.12888              0.03219         *
 * Ti             35     -0.02357              0.09519             -0.10199         *
 * Ti             36      0.01517             -0.12715              0.05309         *
 * Ti             37      0.05275              0.13202              0.14385         *
 * Ti             38     -0.01184              0.13102             -0.05294         *
 * Ti             39      0.18669              0.09237             -0.06672         *
 * Ti             40     -0.15832             -0.04784             -0.01080         *
 * Ti             41      0.36794             -0.17190             -0.01131         *
 * Ti             42      0.12312             -0.05812             -0.10069         *
 * Ti             43     -0.02082             -0.02146             -0.10585         *
 * Ti             44     -0.01957              0.11595             -0.01747         *
 * Ti             45     -0.16258              0.09396              0.09218         *
 * Ti             46      0.11370              0.09207              0.08946         *
 * Ti             47     -0.08744             -0.12789             -0.01192         *
 * Ti             48      0.11534             -0.08681              0.00278         *
 * Ti             49     -0.09739             -0.18190             -0.31340         *
 * Ti             50     -0.15807              0.17533             -0.17113         *
 * Ti             51     -0.09031             -0.02419              0.10063         *
 * Ti             52     -0.12978              0.06929              0.02011         *
 * Ti             53      0.07973             -0.06539              0.02727         *
 * Ti             54     -0.09308             -0.16867              0.04518         *
 * Ti             55     -0.09151              0.02937              0.05081         *
 * V               1     -0.25951              0.05770             -0.08919         *
 * V               2     -0.18153              0.03845              0.04203         *
 *                                                                                  *
 ************************************************************************************

 ***************** Stress Tensor *****************
 *                                               *
 *          Cartesian components (GPa)           *
 * --------------------------------------------- *
 *             x             y             z     *
 *                                               *
 *  x      1.104706     -1.203035      0.123510  *
 *  y     -1.203035     -2.587368     -1.410384  *
 *  z      0.123510     -1.410384      0.821131  *
 *                                               *
 *  Pressure:    0.2205                          *
 *                                               *
 *************************************************

 *********** Constrained Stress Tensor ***********
 *                                               *
 *          Cartesian components (GPa)           *
 * --------------------------------------------- *
 *             x             y             z     *
 *                                               *
 *  x     -0.221702      0.000000     -0.000000  *
 *  y      0.000000     -0.221702     -0.000000  *
 *  z     -0.000000     -0.000000     -0.221702  *
 *                                               *
 *  Pressure:    0.2217                          *
 *                                               *
 *************************************************
 LBFGS: finished iteration     0 with enthalpy= -9.25884910E+004 eV
  
 +-----------+-----------------+-----------------+------------+-----+ <-- LBFGS
 | Parameter |      value      |    tolerance    |    units   | OK? | <-- LBFGS
 +-----------+-----------------+-----------------+------------+-----+ <-- LBFGS
 |  dE/ion   |   0.000000E+000 |   2.000000E-005 |         eV | No  | <-- LBFGS
 |  |F|max   |   4.383558E-001 |   5.000000E-002 |       eV/A | No  | <-- LBFGS
 |  |dR|max  |   0.000000E+000 |   1.000000E-003 |          A | No  | <-- LBFGS
 |   Smax    |   2.217022E-001 |   1.000000E-001 |        GPa | No  | <-- LBFGS
 +-----------+-----------------+-----------------+------------+-----+ <-- LBFGS
  

================================================================================
 Starting LBFGS iteration          1 ...
================================================================================
  
 +------------+-------------+-------------+-----------------+ <-- min LBFGS
 |    Step    |   lambda    |   F.delta'  |    enthalpy     | <-- min LBFGS
 +------------+-------------+-------------+-----------------+ <-- min LBFGS
 |  previous  |    0.000000 |    0.550612 |   -92588.491013 | <-- min LBFGS
 +------------+-------------+-------------+-----------------+ <-- min LBFGS
  

--------------------------------------------------------------------------------
 LBFGS: starting iteration         1 with trial guess (lambda=  1.000000)
--------------------------------------------------------------------------------

                           -------------------------------
                                      Unit Cell
                           -------------------------------
        Real Lattice(A)              Reciprocal Lattice(1/A)
    -6.4815938     6.4815938     6.4815938       -0.000000000   0.484694464   0.484694464
     6.4815938    -6.4815938     6.4815938        0.484694464   0.000000000   0.484694464
     6.4815938     6.4815938    -6.4815938        0.484694464   0.484694464  -0.000000000

                       Lattice parameters(A)       Cell Angles
                    a =     11.226450          alpha =  109.471221
                    b =     11.226450          beta  =  109.471221
                    c =     11.226450          gamma =  109.471221

                Current cell volume =          1089.194481 A**3
                            density =             2.684037 amu/A**3
                                    =             4.456949 g/cm^3

                           -------------------------------
                                     Cell Contents
                           -------------------------------

            xxxxxxxxxxxxxxxxxxxxxxxxxxxxxxxxxxxxxxxxxxxxxxxxxxxxxxxxxxxxxxxxx
            x  Element         Atom        Fractional coordinates of atoms  x
            x                 Number           u          v          w      x
            x---------------------------------------------------------------x
            x  Al                1         0.064037   0.058805   0.051883   x
            x  Al                2        -0.010471   0.728421   0.726474   x
            x  Al                3         0.232756  -0.027305  -0.034857   x
            x  Al                4         0.297753   0.806624   0.292315   x
            x  Al                5         0.447682   0.691054  -0.050414   x
            x  Al                6         0.746017   0.016692   0.742321   x
            x  Al                7         0.788420   0.310559   0.789147   x
            x  Ti                1        -0.025259  -0.020971   0.225233   x
            x  Ti                2         0.005161  -0.015453   0.499469   x
            x  Ti                3         0.018352   0.018252   0.773582   x
            x  Ti                4         0.004470   0.260352  -0.000824   x
            x  Ti                5         0.033172   0.265938   0.266039   x
            x  Ti                6        -0.049116   0.196359   0.449595   x
            x  Ti                7        -0.026073   0.233619   0.719763   x
            x  Ti                8         0.042161   0.543942   0.038866   x
            x  Ti                9        -0.031412   0.478424   0.238375   x
            x  Ti               10        -0.004102   0.483112   0.509564   x
            x  Ti               11        -0.001432   0.768885   0.005128   x
            x  Ti               12         0.031316   0.768499   0.267297   x
            x  Ti               13        -0.038174   0.705332   0.461176   x
            x  Ti               14         0.255745   0.023289   0.255308   x
            x  Ti               15         0.281577   0.019682   0.522399   x
            x  Ti               16         0.273191   0.264000   0.032733   x
            x  Ti               17         0.299643   0.309780   0.304355   x
            x  Ti               18         0.221813   0.232791   0.485650   x
            x  Ti               19         0.243659   0.231681   0.748914   x
            x  Ti               20         0.228149   0.467269  -0.034741   x
            x  Ti               21         0.248428   0.522018   0.247784   x
            x  Ti               22         0.272215   0.521613   0.514086   x
            x  Ti               23         0.196472   0.454733   0.708013   x
            x  Ti               24         0.255405   0.751344   0.014093   x
            x  Ti               25         0.227268   0.737858   0.478483   x
            x  Ti               26         0.249870   0.740011   0.741675   x
            x  Ti               27         0.497971  -0.023748   0.000101   x
            x  Ti               28         0.522838   0.021092   0.284384   x
            x  Ti               29         0.549094   0.051216   0.549058   x
            x  Ti               30         0.467873  -0.021328   0.738449   x
            x  Ti               31         0.446263   0.186892  -0.053008   x
            x  Ti               32         0.482170   0.231580   0.225169   x
            x  Ti               33         0.503877   0.268078   0.505543   x
            x  Ti               34         0.523363   0.267941   0.772183   x
            x  Ti               35         0.499903   0.482119  -0.000605   x
            x  Ti               36         0.520145   0.527348   0.282571   x
            x  Ti               37         0.544395   0.553424   0.551524   x
            x  Ti               38         0.466040   0.477491   0.730480   x
            x  Ti               39         0.480620   0.734088   0.219491   x
            x  Ti               40         0.500727   0.763161   0.497629   x
            x  Ti               41         0.528915   0.766195   0.768924   x
            x  Ti               42         0.785040   0.024821   0.013623   x
            x  Ti               43         0.699546  -0.056623   0.194118   x
            x  Ti               44         0.737103  -0.024291   0.466530   x
            x  Ti               45         0.722525   0.234260  -0.021875   x
            x  Ti               46         0.747474   0.233973   0.247750   x
            x  Ti               47         0.770832   0.270775   0.527870   x
            x  Ti               48         0.779461   0.521922   0.020069   x
            x  Ti               49         0.700668   0.447709   0.201817   x
            x  Ti               50         0.730603   0.481383   0.475127   x
            x  Ti               51         0.758483   0.530792   0.752874   x
            x  Ti               52         0.716182   0.727687  -0.020948   x
            x  Ti               53         0.753938   0.734860   0.254235   x
            x  Ti               54         0.770653   0.765345   0.541553   x
            x  Ti               55         0.804435   0.812999   0.807772   x
            x  V                 1         0.009473   0.511327   0.776750   x
            x  V                 2         0.200698  -0.049691   0.701957   x
            xxxxxxxxxxxxxxxxxxxxxxxxxxxxxxxxxxxxxxxxxxxxxxxxxxxxxxxxxxxxxxxxx


------------------------------------------------------------------------ <-- SCF
SCF loop      Energy           Fermi           Energy gain       Timer   <-- SCF
                               energy          per atom          (sec)   <-- SCF
------------------------------------------------------------------------ <-- SCF
Initial  -9.25883501E+004  0.00000000E+000                      5596.90  <-- SCF
      1  -9.25885320E+004  8.35988119E+000   2.84177446E-003    5706.03  <-- SCF
      2  -9.25885361E+004  8.35985364E+000   6.46176050E-005    5870.80  <-- SCF
      3  -9.25887126E+004  8.38124950E+000   2.75786243E-003    6016.79  <-- SCF
      4  -9.25885009E+004  8.37552406E+000  -3.30833863E-003    6157.57  <-- SCF
      5  -9.25885335E+004  8.37254527E+000   5.09503594E-004    6311.80  <-- SCF
      6  -9.25884988E+004  8.36890714E+000  -5.42135889E-004    6456.06  <-- SCF
      7  -9.25884987E+004  8.36941416E+000  -1.26358406E-006    6608.64  <-- SCF
      8  -9.25884989E+004  8.36968020E+000   3.20903201E-006    6758.34  <-- SCF
      9  -9.25884984E+004  8.37017141E+000  -6.93732585E-006    6904.13  <-- SCF
     10  -9.25884985E+004  8.37014618E+000   2.03508413E-007    7054.20  <-- SCF
     11  -9.25884984E+004  8.37005203E+000  -3.15434976E-007    7186.90  <-- SCF
     12  -9.25884984E+004  8.37006531E+000  -1.98839626E-008    7314.27  <-- SCF
     13  -9.25884984E+004  8.37012083E+000  -3.99688144E-008    7422.71  <-- SCF
     14  -9.25884984E+004  8.37011729E+000  -7.62257237E-009    7506.89  <-- SCF
     15  -9.25884984E+004  8.37010563E+000  -1.07327768E-009    7590.27  <-- SCF
------------------------------------------------------------------------ <-- SCF
 
Final energy, E             =  -92588.38107609     eV
Final free energy (E-TS)    =  -92588.49843744     eV
(energies not corrected for finite basis set)
 
NB est. 0K energy (E-0.5TS)      =  -92588.43975677     eV
 

 ************************************** Forces **************************************
 *                                                                                  *
 *                           Cartesian components (eV/A)                            *
 * -------------------------------------------------------------------------------- *
 *                         x                    y                    z              *
 *                                                                                  *
 * Al              1      0.09887             -0.04521             -0.12168         *
 * Al              2      0.12792              0.13572             -0.04620         *
 * Al              3      0.07737              0.32406              0.05997         *
 * Al              4     -0.00188             -0.10579             -0.01594         *
 * Al              5     -0.03156             -0.10157              0.08074         *
 * Al              6      0.06130              0.29916              0.01182         *
 * Al              7      0.01976              0.19454             -0.11338         *
 * Ti              1     -0.34709              0.22996              0.11584         *
 * Ti              2      0.05432              0.13948             -0.02055         *
 * Ti              3      0.26021             -0.06446             -0.06943         *
 * Ti              4     -0.17392             -0.01474             -0.17906         *
 * Ti              5      0.16126             -0.26873             -0.00938         *
 * Ti              6     -0.14240             -0.24120             -0.08793         *
 * Ti              7      0.01314              0.10551             -0.06763         *
 * Ti              8      0.13051              0.13133              0.15620         *
 * Ti              9      0.00460              0.07715             -0.08898         *
 * Ti             10      0.00429              0.02191              0.04029         *
 * Ti             11     -0.00029             -0.04918              0.19399         *
 * Ti             12      0.06851             -0.09900             -0.14243         *
 * Ti             13      0.01151             -0.14326              0.05816         *
 * Ti             14      0.11393             -0.15213              0.04970         *
 * Ti             15      0.15826             -0.17089              0.09344         *
 * Ti             16      0.12426             -0.15791              0.06105         *
 * Ti             17      0.14315              0.14015              0.26501         *
 * Ti             18     -0.10250              0.13725             -0.14074         *
 * Ti             19      0.10384              0.04379              0.17781         *
 * Ti             20     -0.01687             -0.10208             -0.00057         *
 * Ti             21     -0.00886              0.02261              0.01613         *
 * Ti             22      0.17562             -0.04565              0.10031         *
 * Ti             23     -0.14809             -0.20856             -0.08877         *
 * Ti             24     -0.21476             -0.18493             -0.08593         *
 * Ti             25     -0.11770              0.00987             -0.12554         *
 * Ti             26      0.16355              0.24436              0.10706         *
 * Ti             27     -0.24116             -0.09419              0.13176         *
 * Ti             28      0.08089             -0.09938              0.15217         *
 * Ti             29      0.21727             -0.08286              0.30112         *
 * Ti             30     -0.10258              0.06496             -0.15088         *
 * Ti             31     -0.07755             -0.11621             -0.10163         *
 * Ti             32     -0.02007              0.15590             -0.04201         *
 * Ti             33     -0.12145              0.14963             -0.12147         *
 * Ti             34      0.02047             -0.12505              0.03196         *
 * Ti             35     -0.02312              0.09288             -0.10050         *
 * Ti             36      0.01553             -0.12444              0.05148         *
 * Ti             37      0.05376              0.13112              0.14273         *
 * Ti             38     -0.01143              0.12797             -0.05165         *
 * Ti             39      0.18456              0.08852             -0.06541         *
 * Ti             40     -0.15488             -0.04643             -0.00978         *
 * Ti             41      0.36300             -0.16737             -0.01081         *
 * Ti             42      0.12201             -0.05603             -0.09975         *
 * Ti             43     -0.02133             -0.02131             -0.10455         *
 * Ti             44     -0.01877              0.11355             -0.01725         *
 * Ti             45     -0.16012              0.09157              0.09005         *
 * Ti             46      0.11137              0.08981              0.08803         *
 * Ti             47     -0.08615             -0.12282             -0.01323         *
 * Ti             48      0.11384             -0.08457              0.00195         *
 * Ti             49     -0.09660             -0.17884             -0.30873         *
 * Ti             50     -0.15579              0.17184             -0.16826         *
 * Ti             51     -0.08967             -0.02192              0.09886         *
 * Ti             52     -0.12924              0.06729              0.02061         *
 * Ti             53      0.07856             -0.06476              0.02668         *
 * Ti             54     -0.09203             -0.16454              0.04417         *
 * Ti             55     -0.08947              0.02772              0.04835         *
 * V               1     -0.25851              0.05771             -0.08870         *
 * V               2     -0.18157              0.03869              0.04130         *
 *                                                                                  *
 ************************************************************************************

 ***************** Stress Tensor *****************
 *                                               *
 *          Cartesian components (GPa)           *
 * --------------------------------------------- *
 *             x             y             z     *
 *                                               *
 *  x      1.157780     -1.200953      0.123440  *
 *  y     -1.200953     -2.532601     -1.408933  *
 *  z      0.123440     -1.408933      0.872257  *
 *                                               *
 *  Pressure:    0.1675                          *
 *                                               *
 *************************************************

 *********** Constrained Stress Tensor ***********
 *                                               *
 *          Cartesian components (GPa)           *
 * --------------------------------------------- *
 *             x             y             z     *
 *                                               *
 *  x     -0.168712      0.000000      0.000000  *
 *  y      0.000000     -0.168712      0.000000  *
 *  z      0.000000      0.000000     -0.168712  *
 *                                               *
 *  Pressure:    0.1687                          *
 *                                               *
 *************************************************
  
 +------------+-------------+-------------+-----------------+ <-- min LBFGS
 |    Step    |   lambda    |   F.delta'  |    enthalpy     | <-- min LBFGS
 +------------+-------------+-------------+-----------------+ <-- min LBFGS
 |  previous  |    0.000000 |    0.550612 |   -92588.491013 | <-- min LBFGS
 | trial step |    1.000000 |    0.531316 |   -92588.498451 | <-- min LBFGS
 +------------+-------------+-------------+-----------------+ <-- min LBFGS
  
 LBFGS: finished iteration     1 with enthalpy= -9.25884985E+004 eV
  
 +-----------+-----------------+-----------------+------------+-----+ <-- LBFGS
 | Parameter |      value      |    tolerance    |    units   | OK? | <-- LBFGS
 +-----------+-----------------+-----------------+------------+-----+ <-- LBFGS
 |  dE/ion   |   1.162180E-004 |   2.000000E-005 |         eV | No  | <-- LBFGS
 |  |F|max   |   4.321708E-001 |   5.000000E-002 |       eV/A | No  | <-- LBFGS
 |  |dR|max  |   9.382930E-004 |   1.000000E-003 |          A | Yes | <-- LBFGS
 |   Smax    |   1.687119E-001 |   1.000000E-001 |        GPa | No  | <-- LBFGS
 +-----------+-----------------+-----------------+------------+-----+ <-- LBFGS
  

================================================================================
 Starting LBFGS iteration          2 ...
================================================================================
  
 +------------+-------------+-------------+-----------------+ <-- min LBFGS
 |    Step    |   lambda    |   F.delta'  |    enthalpy     | <-- min LBFGS
 +------------+-------------+-------------+-----------------+ <-- min LBFGS
 |  previous  |    0.000000 |    0.551833 |   -92588.498451 | <-- min LBFGS
 +------------+-------------+-------------+-----------------+ <-- min LBFGS
  

--------------------------------------------------------------------------------
 LBFGS: starting iteration         2 with trial guess (lambda=  1.000000)
--------------------------------------------------------------------------------
 
+---------------- MEMORY AND SCRATCH DISK ESTIMATES PER PROCESS --------------+
|                                                     Memory          Disk    |
| Model and support data                              831.5 MB         0.0 MB |
| Electronic energy minimisation requirements         328.6 MB         0.0 MB |
| Geometry minimisation requirements                  459.4 MB         0.0 MB |
|                                               ----------------------------- |
| Approx. total storage required per process         1619.5 MB         0.0 MB |
|                                                                             |
| Requirements will fluctuate during execution and may exceed these estimates |
+-----------------------------------------------------------------------------+
 

                           -------------------------------
                                      Unit Cell
                           -------------------------------
        Real Lattice(A)              Reciprocal Lattice(1/A)
    -6.4823230     6.4823230     6.4823230       -0.000000000   0.484639946   0.484639946
     6.4823230    -6.4823230     6.4823230        0.484639946   0.000000000   0.484639946
     6.4823230     6.4823230    -6.4823230        0.484639946   0.484639946  -0.000000000

                       Lattice parameters(A)       Cell Angles
                    a =     11.227713          alpha =  109.471221
                    b =     11.227713          beta  =  109.471221
                    c =     11.227713          gamma =  109.471221

                Current cell volume =          1089.562097 A**3
                            density =             2.683132 amu/A**3
                                    =             4.455445 g/cm^3

                           -------------------------------
                                     Cell Contents
                           -------------------------------

            xxxxxxxxxxxxxxxxxxxxxxxxxxxxxxxxxxxxxxxxxxxxxxxxxxxxxxxxxxxxxxxxx
            x  Element         Atom        Fractional coordinates of atoms  x
            x                 Number           u          v          w      x
            x---------------------------------------------------------------x
            x  Al                1         0.064009   0.058801   0.051892   x
            x  Al                2        -0.010456   0.728434   0.726518   x
            x  Al                3         0.232820  -0.027282  -0.034790   x
            x  Al                4         0.297733   0.806621   0.292297   x
            x  Al                5         0.447679   0.691062  -0.050436   x
            x  Al                6         0.746069   0.016704   0.742380   x
            x  Al                7         0.788434   0.310543   0.789182   x
            x  Ti                1        -0.025202  -0.021010   0.225214   x
            x  Ti                2         0.005181  -0.015447   0.499501   x
            x  Ti                3         0.018330   0.018283   0.773614   x
            x  Ti                4         0.004438   0.260294  -0.000855   x
            x  Ti                5         0.033126   0.265963   0.266021   x
            x  Ti                6        -0.049170   0.196321   0.449532   x
            x  Ti                7        -0.026066   0.233610   0.719783   x
            x  Ti                8         0.042209   0.543989   0.038910   x
            x  Ti                9        -0.031414   0.478410   0.238389   x
            x  Ti               10        -0.004091   0.483119   0.509568   x
            x  Ti               11        -0.001408   0.768917   0.005120   x
            x  Ti               12         0.031276   0.768487   0.267292   x
            x  Ti               13        -0.038188   0.705343   0.461154   x
            x  Ti               14         0.255728   0.023316   0.255302   x
            x  Ti               15         0.281564   0.019723   0.522397   x
            x  Ti               16         0.273175   0.264031   0.032728   x
            x  Ti               17         0.299710   0.309847   0.304402   x
            x  Ti               18         0.221813   0.232750   0.485655   x
            x  Ti               19         0.243696   0.231728   0.748938   x
            x  Ti               20         0.228132   0.467266  -0.034761   x
            x  Ti               21         0.248435   0.522019   0.247787   x
            x  Ti               22         0.272224   0.521659   0.514108   x
            x  Ti               23         0.196423   0.454694   0.707954   x
            x  Ti               24         0.255360   0.751294   0.014027   x
            x  Ti               25         0.227249   0.737818   0.478465   x
            x  Ti               26         0.249928   0.740056   0.741742   x
            x  Ti               27         0.497977  -0.023766   0.000046   x
            x  Ti               28         0.522847   0.021131   0.284380   x
            x  Ti               29         0.549130   0.051301   0.549081   x
            x  Ti               30         0.467858  -0.021370   0.738443   x
            x  Ti               31         0.446227   0.186862  -0.053040   x
            x  Ti               32         0.482189   0.231570   0.225192   x
            x  Ti               33         0.503881   0.268038   0.505547   x
            x  Ti               34         0.523348   0.267950   0.772166   x
            x  Ti               35         0.499902   0.482099  -0.000594   x
            x  Ti               36         0.520132   0.527359   0.282553   x
            x  Ti               37         0.544441   0.553456   0.551555   x
            x  Ti               38         0.466053   0.477481   0.730499   x
            x  Ti               39         0.480623   0.734107   0.219536   x
            x  Ti               40         0.500718   0.763133   0.497596   x
            x  Ti               41         0.528886   0.766253   0.768956   x
            x  Ti               42         0.785014   0.024825   0.013634   x
            x  Ti               43         0.699525  -0.056643   0.194111   x
            x  Ti               44         0.737119  -0.024297   0.466546   x
            x  Ti               45         0.722555   0.234249  -0.021886   x
            x  Ti               46         0.747503   0.234006   0.247783   x
            x  Ti               47         0.770810   0.270759   0.527835   x
            x  Ti               48         0.779448   0.521941   0.020074   x
            x  Ti               49         0.700588   0.447642   0.201772   x
            x  Ti               50         0.730603   0.481330   0.475130   x
            x  Ti               51         0.758495   0.530793   0.752856   x
            x  Ti               52         0.716196   0.727669  -0.020958   x
            x  Ti               53         0.753932   0.734877   0.254237   x
            x  Ti               54         0.770633   0.765337   0.541511   x
            x  Ti               55         0.804447   0.812992   0.807762   x
            x  V                 1         0.009467   0.511269   0.776716   x
            x  V                 2         0.200711  -0.049715   0.701933   x
            xxxxxxxxxxxxxxxxxxxxxxxxxxxxxxxxxxxxxxxxxxxxxxxxxxxxxxxxxxxxxxxxx


------------------------------------------------------------------------ <-- SCF
SCF loop      Energy           Fermi           Energy gain       Timer   <-- SCF
                               energy          per atom          (sec)   <-- SCF
------------------------------------------------------------------------ <-- SCF
Initial  -9.25883597E+004  0.00000000E+000                      7931.93  <-- SCF
      1  -9.25885369E+004  8.35840610E+000   2.76821471E-003    8040.30  <-- SCF
      2  -9.25885409E+004  8.35837769E+000   6.28628710E-005    8204.90  <-- SCF
      3  -9.25887416E+004  8.37543527E+000   3.13569533E-003    8350.54  <-- SCF
      4  -9.25885070E+004  8.37060923E+000  -3.66456082E-003    8490.88  <-- SCF
      5  -9.25885361E+004  8.36892988E+000   4.54201536E-004    8646.35  <-- SCF
      6  -9.25885063E+004  8.36531475E+000  -4.66282066E-004    8791.77  <-- SCF
      7  -9.25885057E+004  8.36580589E+000  -8.46301530E-006    8943.72  <-- SCF
      8  -9.25885058E+004  8.36592903E+000   5.88733700E-007    9094.19  <-- SCF
      9  -9.25885055E+004  8.36643496E+000  -4.97318033E-006    9241.22  <-- SCF
     10  -9.25885055E+004  8.36642675E+000  -5.44662804E-009    9390.61  <-- SCF
     11  -9.25885054E+004  8.36633977E+000  -2.39329902E-007    9520.90  <-- SCF
     12  -9.25885054E+004  8.36634970E+000  -4.56016370E-008    9646.81  <-- SCF
     13  -9.25885054E+004  8.36640495E+000  -3.12710308E-008    9751.62  <-- SCF
     14  -9.25885054E+004  8.36640563E+000  -9.35400844E-009    9835.32  <-- SCF
     15  -9.25885054E+004  8.36639319E+000  -1.68058541E-009    9918.28  <-- SCF
     16  -9.25885054E+004  8.36638754E+000   4.56302526E-011   10001.02  <-- SCF
------------------------------------------------------------------------ <-- SCF
 
Final energy, E             =  -92588.38816455     eV
Final free energy (E-TS)    =  -92588.50543264     eV
(energies not corrected for finite basis set)
 
NB est. 0K energy (E-0.5TS)      =  -92588.44679859     eV
 

 ************************************** Forces **************************************
 *                                                                                  *
 *                           Cartesian components (eV/A)                            *
 * -------------------------------------------------------------------------------- *
 *                         x                    y                    z              *
 *                                                                                  *
 * Al              1      0.09895             -0.04350             -0.11806         *
 * Al              2      0.12555              0.13470             -0.04469         *
 * Al              3      0.07723              0.32012              0.06017         *
 * Al              4      0.00056             -0.10524             -0.01433         *
 * Al              5     -0.03178             -0.09905              0.07767         *
 * Al              6      0.05965              0.29232              0.01013         *
 * Al              7      0.02052              0.19279             -0.10912         *
 * Ti              1     -0.34281              0.22647              0.11374         *
 * Ti              2      0.05468              0.13792             -0.02053         *
 * Ti              3      0.25575             -0.06222             -0.06863         *
 * Ti              4     -0.17123             -0.01425             -0.17667         *
 * Ti              5      0.15913             -0.26244             -0.00779         *
 * Ti              6     -0.14205             -0.23737             -0.08759         *
 * Ti              7      0.01134              0.10229             -0.06704         *
 * Ti              8      0.12862              0.12810              0.15314         *
 * Ti              9      0.00712              0.07325             -0.08907         *
 * Ti             10      0.00443              0.02108              0.04063         *
 * Ti             11      0.00008             -0.04811              0.19249         *
 * Ti             12      0.06788             -0.09721             -0.14047         *
 * Ti             13      0.01043             -0.14161              0.05529         *
 * Ti             14      0.11411             -0.15028              0.05016         *
 * Ti             15      0.15573             -0.16796              0.09241         *
 * Ti             16      0.12424             -0.15456              0.05940         *
 * Ti             17      0.14208              0.13665              0.26078         *
 * Ti             18     -0.10104              0.13314             -0.13835         *
 * Ti             19      0.10186              0.04316              0.17606         *
 * Ti             20     -0.01637             -0.10254              0.00128         *
 * Ti             21     -0.00972              0.02272              0.01571         *
 * Ti             22      0.17282             -0.04383              0.10044         *
 * Ti             23     -0.14690             -0.20521             -0.08767         *
 * Ti             24     -0.21326             -0.18172             -0.08611         *
 * Ti             25     -0.11516              0.00864             -0.12425         *
 * Ti             26      0.16117              0.24022              0.10522         *
 * Ti             27     -0.23844             -0.09139              0.13247         *
 * Ti             28      0.07990             -0.09874              0.14958         *
 * Ti             29      0.21264             -0.08040              0.29603         *
 * Ti             30     -0.10145              0.06207             -0.14860         *
 * Ti             31     -0.07804             -0.11584             -0.10103         *
 * Ti             32     -0.01890              0.15298             -0.04150         *
 * Ti             33     -0.11952              0.14714             -0.11993         *
 * Ti             34      0.02070             -0.12153              0.03154         *
 * Ti             35     -0.02268              0.09062             -0.09923         *
 * Ti             36      0.01592             -0.12185              0.05011         *
 * Ti             37      0.05448              0.13006              0.14152         *
 * Ti             38     -0.01120              0.12503             -0.05048         *
 * Ti             39      0.18253              0.08483             -0.06400         *
 * Ti             40     -0.15147             -0.04488             -0.00868         *
 * Ti             41      0.35846             -0.16329             -0.01029         *
 * Ti             42      0.12096             -0.05421             -0.09889         *
 * Ti             43     -0.02159             -0.02113             -0.10339         *
 * Ti             44     -0.01806              0.11132             -0.01725         *
 * Ti             45     -0.15792              0.08926              0.08770         *
 * Ti             46      0.10932              0.08756              0.08647         *
 * Ti             47     -0.08483             -0.11831             -0.01453         *
 * Ti             48      0.11231             -0.08264              0.00113         *
 * Ti             49     -0.09560             -0.17574             -0.30431         *
 * Ti             50     -0.15360              0.16862             -0.16549         *
 * Ti             51     -0.08946             -0.01962              0.09724         *
 * Ti             52     -0.12879              0.06544              0.02121         *
 * Ti             53      0.07765             -0.06419              0.02600         *
 * Ti             54     -0.09104             -0.16061              0.04335         *
 * Ti             55     -0.08757              0.02619              0.04630         *
 * V               1     -0.25693              0.05760             -0.08800         *
 * V               2     -0.18144              0.03920              0.04057         *
 *                                                                                  *
 ************************************************************************************

 ***************** Stress Tensor *****************
 *                                               *
 *          Cartesian components (GPa)           *
 * --------------------------------------------- *
 *             x             y             z     *
 *                                               *
 *  x      1.197672     -1.199010      0.123233  *
 *  y     -1.199010     -2.491385     -1.407922  *
 *  z      0.123233     -1.407922      0.910164  *
 *                                               *
 *  Pressure:    0.1278                          *
 *                                               *
 *************************************************

 *********** Constrained Stress Tensor ***********
 *                                               *
 *          Cartesian components (GPa)           *
 * --------------------------------------------- *
 *             x             y             z     *
 *                                               *
 *  x     -0.129039      0.000000      0.000000  *
 *  y      0.000000     -0.129039      0.000000  *
 *  z      0.000000      0.000000     -0.129039  *
 *                                               *
 *  Pressure:    0.1290                          *
 *                                               *
 *************************************************
  
 +------------+-------------+-------------+-----------------+ <-- min LBFGS
 |    Step    |   lambda    |   F.delta'  |    enthalpy     | <-- min LBFGS
 +------------+-------------+-------------+-----------------+ <-- min LBFGS
 |  previous  |    0.000000 |    0.551833 |   -92588.498451 | <-- min LBFGS
 | trial step |    1.000000 |    0.536969 |   -92588.505435 | <-- min LBFGS
 +------------+-------------+-------------+-----------------+ <-- min LBFGS
  
 LBFGS: finished iteration     2 with enthalpy= -9.25885054E+004 eV
  
 +-----------+-----------------+-----------------+------------+-----+ <-- LBFGS
 | Parameter |      value      |    tolerance    |    units   | OK? | <-- LBFGS
 +-----------+-----------------+-----------------+------------+-----+ <-- LBFGS
 |  dE/ion   |   1.091265E-004 |   2.000000E-005 |         eV | No  | <-- LBFGS
 |  |F|max   |   4.263139E-001 |   5.000000E-002 |       eV/A | No  | <-- LBFGS
 |  |dR|max  |   9.252948E-004 |   1.000000E-003 |          A | Yes | <-- LBFGS
 |   Smax    |   1.290391E-001 |   1.000000E-001 |        GPa | No  | <-- LBFGS
[...]
              Al 1 -- Al 3                   0.31        2.71402
             Ti 6  -- Ti 47                  0.13        2.71558
             Ti 31 -- V 2                    0.09        2.71730
              Al 1 -- Ti 1                   0.26        2.71830
              Al 4 -- Ti 25                  0.28        2.71915
             Ti 37 -- Ti 38                  0.17        2.71918
             Ti 47 -- V 1                    0.15        2.72418
              Al 2 -- Al 3                   0.31        2.72672
             Ti 54 -- Ti 55                  0.13        2.72810
             Ti 8  -- V 1                    0.16        2.73068
             Ti 26 -- V 2                    0.24        2.73171
              Al 5 -- Ti 41                  0.27        2.73228
             Ti 52 -- Ti 55                  0.17        2.73233
              Al 1 -- Ti 4                   0.30        2.73962
             Ti 5  -- Ti 17                  0.19        2.74077
             Ti 48 -- Ti 49                  0.17        2.74231
              Al 7 -- Ti 7                   0.29        2.74264
             Ti 11 -- Ti 51                  0.21        2.74315
             Ti 20 -- Ti 23                  0.20        2.74340
              Al 5 -- Ti 23                  0.20        2.74434
             Ti 47 -- Ti 50                  0.22        2.74539
              Al 7 -- Ti 45                  0.33        2.74724
             Ti 7  -- Ti 20                  0.13        2.74794
             Ti 17 -- Ti 37                  0.13        2.74865
             Ti 22 -- Ti 25                  0.23        2.74923
              Al 2 -- V 1                    0.33        2.74942
             Ti 5  -- Ti 6                   0.19        2.74943
             Ti 17 -- Ti 18                  0.19        2.75157
             Ti 18 -- Ti 38                  0.16        2.75239
              Al 7 -- Ti 51                  0.24        2.75287
             Ti 48 -- Ti 52                  0.25        2.75308
             Ti 12 -- Ti 13                  0.17        2.75552
             Ti 36 -- Ti 49                  0.15        2.75776
             Ti 2  -- Ti 19                  0.23        2.75799
              Al 7 -- Ti 47                  0.24        2.75823
             Ti 3  -- Ti 54                  0.09        2.75889
             Ti 30 -- Ti 41                  0.22        2.76125
             Ti 36 -- Ti 39                  0.25        2.76248
             Ti 28 -- Ti 43                  0.15        2.76358
             Ti 37 -- Ti 50                  0.18        2.76402
              Al 7 -- Ti 29                  0.27        2.76407
             Ti 28 -- Ti 47                  0.12        2.76548
             Ti 8  -- Ti 20                  0.18        2.76617
             Ti 34 -- Ti 38                  0.27        2.76651
             Ti 15 -- Ti 34                  0.10        2.76689
              Al 4 -- Ti 14                  0.28        2.76715
             Ti 26 -- Ti 27                  0.19        2.76765
             Ti 17 -- Ti 32                  0.21        2.76832
             Ti 37 -- Ti 40                  0.23        2.76838
             Ti 1  -- Ti 12                  0.23        2.76857
             Ti 42 -- Ti 45                  0.23        2.76982
             Ti 16 -- Ti 20                  0.23        2.77129
             Ti 30 -- V 2                    0.21        2.77136
              Al 7 -- Ti 8                   0.23        2.77177
             Ti 10 -- Ti 23                  0.06        2.77355
             Ti 13 -- Ti 54                  0.17        2.77600
             Ti 28 -- Ti 32                  0.24        2.77644
             Ti 5  -- Ti 42                  0.18        2.77646
             Ti 5  -- Ti 9                   0.27        2.77860
             Ti 14 -- Ti 33                  0.23        2.77884
             Ti 21 -- Ti 40                  0.21        2.77894
             Ti 28 -- Ti 29                  0.11        2.77966
             Ti 29 -- Ti 33                  0.18        2.78094
             Ti 25 -- Ti 30                  0.18        2.78393
              Al 4 -- Ti 12                  0.27        2.78397
             Ti 46 -- Ti 49                  0.23        2.78499
              Al 3 -- Ti 24                  0.38        2.78515
             Ti 12 -- Ti 48                  0.13        2.78611
              Al 3 -- V 2                    0.26        2.78647
             Ti 15 -- Ti 18                  0.23        2.78653
              Al 7 -- Ti 34                  0.28        2.78664
              Al 1 -- Ti 17                  0.18        2.78805
             Ti 39 -- Ti 44                  0.17        2.79002
             Ti 9  -- Ti 49                  0.20        2.79092
              Al 6 -- Ti 29                  0.26        2.79109
              Al 5 -- Ti 35                  0.26        2.79119
             Ti 42 -- Ti 43                  0.18        2.79272
              Al 5 -- Ti 39                  0.27        2.79288
             Ti 32 -- Ti 50                  0.17        2.79352
             Ti 5  -- Ti 22                  0.17        2.79414
              Al 5 -- Ti 52                  0.26        2.79714
             Ti 27 -- Ti 43                  0.21        2.79780
             Ti 2  -- Ti 53                  0.25        2.79830
              Al 6 -- Ti 40                  0.30        2.79915
             Ti 38 -- Ti 52                  0.11        2.80023
             Ti 36 -- Ti 54                  0.12        2.80053
              Al 5 -- Ti 43                  0.20        2.80108
             Ti 10 -- Ti 26                  0.19        2.80446
             Ti 7  -- Ti 44                  0.19        2.80542
              Al 1 -- Ti 14                  0.23        2.80613
             Ti 6  -- Ti 18                  0.20        2.80639
              Al 1 -- Ti 55                  0.22        2.80995
             Ti 7  -- V 1                    0.17        2.81194
             Ti 13 -- Ti 25                  0.12        2.81218
             Ti 27 -- Ti 31                  0.16        2.81227
             Ti 15 -- Ti 29                  0.13        2.81233
             Ti 22 -- Ti 23                  0.21        2.81275
             Ti 9  -- Ti 45                  0.17        2.81409
             Ti 16 -- Ti 17                  0.24        2.81529
             Ti 8  -- Ti 48                  0.15        2.81647
             Ti 2  -- V 2                    0.16        2.81736
              Al 2 -- Ti 13                  0.25        2.81772
              Al 4 -- Ti 24                  0.28        2.81837
             Ti 30 -- Ti 45                  0.18        2.81890
              Al 6 -- Ti 55                  0.25        2.82142
             Ti 19 -- Ti 35                  0.24        2.82418
              Al 7 -- V 1                    0.22        2.82425
             Ti 3  -- Ti 7                   0.23        2.82429
              Al 1 -- Ti 16                  0.26        2.82450
              Al 6 -- Ti 4                   0.33        2.82469
             Ti 43 -- Ti 44                  0.16        2.82547
             Ti 41 -- Ti 55                  0.12        2.82833
             Ti 43 -- Ti 53                  0.23        2.82861
             Ti 2  -- Ti 6                   0.19        2.82962
             Ti 22 -- Ti 37                  0.15        2.83112
             Ti 22 -- Ti 41                  0.17        2.83163
              Al 2 -- Ti 55                  0.25        2.83229
              Al 2 -- Ti 26                  0.25        2.83299
             Ti 7  -- Ti 47                  0.16        2.83350
             Ti 51 -- V 1                    0.16        2.83351
             Ti 1  -- Ti 52                  0.15        2.83444
             Ti 6  -- Ti 43                  0.11        2.83459
              Al 4 -- Ti 29                  0.18        2.83478
             Ti 29 -- Ti 44                  0.18        2.83549
             Ti 29 -- Ti 30                  0.21        2.83650
              Al 1 -- Ti 3                   0.27        2.83672
             Ti 8  -- Ti 21                  0.16        2.83758
             Ti 17 -- Ti 21                  0.19        2.83804
             Ti 27 -- Ti 30                  0.14        2.83810
             Ti 41 -- Ti 42                  0.14        2.83919
             Ti 9  -- Ti 25                  0.19        2.83925
             Ti 12 -- Ti 15                  0.09        2.83990
             Ti 27 -- Ti 46                  0.22        2.84007
             Ti 4  -- Ti 21                  0.22        2.84030
             Ti 10 -- Ti 46                  0.21        2.84049
             Ti 34 -- Ti 48                  0.10        2.84053
             Ti 51 -- Ti 55                  0.15        2.84241
             Ti 35 -- Ti 49                  0.13        2.84315
             Ti 44 -- Ti 54                  0.23        2.84347
             Ti 6  -- Ti 7                   0.07        2.84412
             Ti 3  -- Ti 16                  0.04        2.84429
             Ti 37 -- Ti 51                  0.15        2.84444
             Ti 10 -- Ti 13                  0.18        2.84595
             Ti 16 -- Ti 36                  0.13        2.84683
             Ti 11 -- Ti 14                  0.22        2.84843
              Al 2 -- Ti 50                  0.23        2.84854
             Ti 16 -- Ti 32                  0.14        2.84891
             Ti 11 -- Ti 55                  0.18        2.84918
             Ti 1  -- Ti 18                  0.15        2.85004
             Ti 8  -- Ti 11                  0.14        2.85073
             Ti 30 -- Ti 31                  0.15        2.85076
             Ti 42 -- Ti 55                  0.22        2.85157
             Ti 36 -- Ti 37                  0.16        2.85164
             Ti 10 -- V 1                    0.17        2.85215
             Ti 35 -- Ti 53                  0.24        2.85342
              Al 3 -- Ti 27                  0.24        2.85377
             Ti 11 -- Ti 12                  0.16        2.85444
             Ti 49 -- Ti 50                  0.16        2.85687
             Ti 50 -- Ti 51                  0.12        2.85723
             Ti 2  -- Ti 13                  0.11        2.85731
             Ti 31 -- Ti 45                  0.11        2.85801
             Ti 6  -- Ti 23                  0.12        2.85850
             Ti 12 -- Ti 25                  0.18        2.86103
             Ti 10 -- Ti 50                  0.15        2.86266
             Ti 8  -- Ti 9                   0.21        2.86472
             Ti 31 -- Ti 32                  0.18        2.86562
              Al 3 -- Ti 32                  0.24        2.86635
             Ti 15 -- Ti 25                  0.12        2.86698
             Ti 41 -- Ti 52                  0.14        2.86766
             Ti 19 -- Ti 23                  0.22        2.86845
             Ti 33 -- Ti 51                  0.23        2.86927
             Ti 2  -- Ti 44                  0.18        2.87004
              Al 5 -- Ti 27                  0.22        2.87202
             Ti 50 -- Ti 54                  0.12        2.87220
             Ti 34 -- Ti 45                  0.18        2.87260
             Ti 23 -- Ti 38                  0.17        2.87561
             Ti 31 -- Ti 49                  0.10        2.87609
              Al 4 -- Ti 8                   0.19        2.87613
             Ti 6  -- Ti 46                  0.15        2.87853
             Ti 4  -- Ti 5                   0.13        2.87883
             Ti 19 -- V 2                    0.17        2.87930
             Ti 25 -- Ti 26                  0.10        2.88134
             Ti 1  -- Ti 14                  0.14        2.88247
             Ti 18 -- Ti 19                  0.15        2.88292
             Ti 1  -- Ti 43                  0.10        2.88583
             Ti 8  -- Ti 24                  0.06        2.88701
              Al 3 -- Ti 31                  0.19        2.88773
              Al 6 -- Ti 42                  0.24        2.88896
             Ti 20 -- Ti 35                  0.16        2.88912
              Al 1 -- Ti 42                  0.21        2.88951
             Ti 13 -- Ti 53                  0.13        2.89033
             Ti 6  -- Ti 10                  0.17        2.89057
             Ti 40 -- Ti 54                  0.12        2.89077
             Ti 4  -- Ti 16                  0.14        2.89189
             Ti 28 -- Ti 39                  0.13        2.89241
              Al 4 -- Ti 21                  0.24        2.89291
             Ti 37 -- Ti 55                  0.09        2.89297
             Ti 32 -- Ti 46                  0.15        2.89321
              Al 1 -- Ti 11                  0.24        2.89480
             Ti 35 -- Ti 38                  0.13        2.89563
             Ti 2  -- Ti 15                  0.12        2.89803
             Ti 49 -- Ti 53                  0.19        2.89919
             Ti 37 -- Ti 54                  0.24        2.90513
             Ti 33 -- Ti 47                  0.12        2.90698
              Al 2 -- Ti 54                  0.16        2.90789
             Ti 20 -- Ti 39                  0.16        2.90808
             Ti 37 -- Ti 41                  0.18        2.90986
             Ti 43 -- Ti 52                  0.21        2.91143
             Ti 5  -- Ti 18                  0.12        2.91159
              Al 4 -- Ti 28                  0.23        2.91162
             Ti 19 -- Ti 31                  0.11        2.91172
             Ti 14 -- Ti 17                  0.17        2.91288
             Ti 21 -- Ti 22                  0.13        2.91476
             Ti 21 -- Ti 36                  0.14        2.91636
             Ti 25 -- Ti 40                  0.13        2.91892
             Ti 45 -- Ti 48                  0.16        2.92076
             Ti 33 -- Ti 34                  0.16        2.92091
             Ti 11 -- Ti 24                  0.18        2.92149
             Ti 2  -- Ti 3                   0.12        2.92159
             Ti 14 -- Ti 28                  0.17        2.92183
             Ti 28 -- Ti 44                  0.14        2.92226
             Ti 17 -- Ti 22                  0.12        2.92396
             Ti 24 -- Ti 39                  0.17        2.92449
             Ti 15 -- Ti 30                  0.10        2.92530
             Ti 26 -- Ti 41                  0.13        2.92641
             Ti 1  -- Ti 5                   0.11        2.92643
             Ti 23 -- Ti 26                  0.17        2.92684
             Ti 13 -- Ti 49                  0.09        2.92697
              Al 5 -- Ti 38                  0.21        2.92834
             Ti 6  -- Ti 44                  0.18        2.92891
             Ti 17 -- Ti 33                  0.10        2.92909
             Ti 20 -- Ti 24                  0.11        2.93000
             Ti 19 -- Ti 34                  0.15        2.93012
             Ti 14 -- Ti 15                  0.17        2.93034
             Ti 35 -- Ti 48                  0.11        2.93109
             Ti 29 -- Ti 40                  0.19        2.93122
             Ti 9  -- Ti 10                  0.15        2.93171
             Ti 46 -- Ti 47                  0.16        2.93227
             Ti 33 -- Ti 37                  0.17        2.93274
             Ti 4  -- Ti 7                   0.12        2.93379
             Ti 1  -- Ti 11                  0.14        2.93540
              Al 6 -- Ti 3                   0.19        2.93545
              Al 7 -- Ti 48                  0.21        2.93641
             Ti 39 -- Ti 40                  0.15        2.93698
             Ti 20 -- Ti 21                  0.15        2.94052
             Ti 38 -- Ti 41                  0.13        2.94058
             Ti 4  -- Ti 8                   0.23        2.94143
             Ti 43 -- Ti 46                  0.14        2.94233
              Al 6 -- Ti 44                  0.19        2.94357
             Ti 11 -- Ti 52                  0.11        2.94395
              Al 3 -- Ti 16                  0.16        2.94603
             Ti 7  -- Ti 19                  0.13        2.94731
             Ti 52 -- Ti 53                  0.13        2.94740
             Ti 32 -- Ti 33                  0.12        2.94856
              Al 1 -- Ti 5                   0.19        2.94887
             Ti 1  -- Ti 42                  0.10        2.94996
             Ti 39 -- Ti 43                  0.18        2.95036
             Ti 3  -- Ti 55                  0.18        2.95057
             Ti 12 -- Ti 53                  0.16        2.95065
              Al 2 -- Ti 11                  0.23        2.95384
             Ti 20 -- V 1                    0.11        2.95401
             Ti 40 -- Ti 41                  0.12        2.95446
             Ti 45 -- Ti 46                  0.13        2.95464
             Ti 7  -- Ti 23                  0.04        2.95512
             Ti 35 -- Ti 36                  0.14        2.95660
             Ti 9  -- Ti 13                  0.18        2.95908
             Ti 39 -- Ti 53                  0.14        2.95975
              Al 4 -- Ti 40                  0.17        2.96140
             Ti 36 -- Ti 50                  0.13        2.96254
             Ti 10 -- Ti 22                  0.14        2.96392
             Ti 32 -- Ti 49                  0.17        2.96476
             Ti 10 -- Ti 47                  0.11        2.96617
              Al 5 -- Ti 26                  0.18        2.96829
              Al 2 -- Ti 51                  0.14        2.96844
             Ti 9  -- Ti 48                  0.11        2.97029
             Ti 31 -- Ti 35                  0.15        2.97055
             Ti 27 -- Ti 28                  0.14        2.97103
             Ti 1  -- Ti 2                   0.14        2.97280
             Ti 16 -- Ti 19                  0.10        2.97329
             Ti 30 -- Ti 34                  0.08        2.97349
             Ti 9  -- Ti 12                  0.13        2.97402
             Ti 48 -- Ti 51                  0.13        2.97489
             Ti 26 -- Ti 30                  0.08        2.97545
             Ti 17 -- Ti 36                  0.13        2.97831
             Ti 24 -- Ti 26                  0.16        2.97943
             Ti 9  -- Ti 21                  0.16        2.97955
             Ti 18 -- Ti 33                  0.13        2.98075
              Al 5 -- Ti 20                  0.20        2.98154
              Al 2 -- V 2                    0.17        2.98194
              Al 3 -- Ti 3                   0.12        2.98516
             Ti 29 -- Ti 47                  0.15        2.98945
             Ti 4  -- Ti 45                  0.14        2.98950
             Ti 45 -- Ti 49                  0.15        2.98964
             Ti 22 -- Ti 38                  0.11        2.99031
              Al 4 -- Ti 15                  0.19        2.99212
              Al 6 -- Ti 30                  0.18        2.99823
======================================================================


Writing analysis data to sqs_bcc_sc4x4x4_Ti55Al7V2_frame0_geomopti.castep_bin

Writing model to sqs_bcc_sc4x4x4_Ti55Al7V2_frame0_geomopti.check
 
 A BibTeX formatted list of references used in this run has been written to 
 sqs_bcc_sc4x4x4_Ti55Al7V2_frame0_geomopti.bib
 
Initialisation time =     21.74 s
Calculation time    =  75037.33 s
Finalisation time   =     53.39 s
Total time          =  75112.45 s
Peak Memory Use     = 2324304 kB
 
Overall parallel efficiency rating: Mediocre (55%)
 
Data was distributed by:-
G-vector (16-way); efficiency rating: Mediocre (56%)
k-point (18-way); efficiency rating: Excellent (96%)
