 +-------------------------------------------------+
 |                                                 |
 |      CCC   AA    SSS  TTTTT  EEEEE  PPPP        |
 |     C     A  A  S       T    E      P   P       |
 |     C     AAAA   SS     T    EEE    PPPP        |
 |     C     A  A     S    T    E      P           |
 |      CCC  A  A  SSS     T    EEEEE  P           |
 |                                                 |
 +-------------------------------------------------+
 |                                                 |
 | Welcome to Academic Release CASTEP version 24.1 |
 | Ab Initio Total Energy Program                  |
 |                                                 |
 | Authors:                                        |
 | M. Segall, M. Probert, C. Pickard, P. Hasnip,   |
 | S. Clark, K. Refson, J. R. Yates,               |
 | A. Bartok-Partay, M. Payne                      |
 |                                                 |
 | Contributors:                                   |
 | P. Lindan, P. Haynes, J. White, V. Milman,      |
 | N. Govind, M. Gibson, P. Tulip, V. Cocula,      |
 | B. Montanari, D. Quigley, M. Glover,            |
 | L. Bernasconi, A. Perlov, M. Plummer,           |
 | E. McNellis, J. Meyer, J. Gale, D. Jochym       |
 | J. Aarons, B. Walker, R. Gillen, D. Jones       |
 | T. Green, I. J. Bush, C. J. Armstrong,          |
 | E. J. Higgins, E. L. Brown, M. S. McFly,        |
 | J. Wilkins, B-C. Shih, P. J. P. Byrne,          |
 | R. J. Maurer, J. C. Womack, J. Dziedzic,        |
 | L. LeBlanc, T. K. Stenczel, J. Kermode,         |
 | S. Sturniolo, B. Shi, B. Durham, M. Evans,      |
 | M. J. Smith, A. Tamerus, Z. Hawkhead,           |
 | V. Ravindran, T. Hollins, S. A. Joyce,          |
 | R. T. Strong, A. M. Reilly                      |
 |                                                 |
 | Copyright (c) 2000 - 2023                       |
 |                                                 |
 |     Distributed under license from Cambridge    |
 |     Enterprise for academic use only.           |
 |                                                 |
 | Please cite                                     |
 |                                                 |
 |     "First principles methods using CASTEP"     |
 |                                                 |
 |         Zeitschrift fuer Kristallographie       |
 |           220(5-6) pp. 567-570 (2005)           |
 |                                                 |
 | S. J. Clark, M. D. Segall, C. J. Pickard,       |
 | P. J. Hasnip, M. J. Probert, K. Refson,         |
 | M. C. Payne                                     |
 |                                                 |
 |       in all publications arising from          |
 |              your use of CASTEP                 |
 |                                                 |
 +-------------------------------------------------+
 |                                                 |
 |              http://www.castep.org              |
 |                                                 |
 +-------------------------------------------------+



 Compiled for linux_x86_64_gfortran10 on Tue, 02 May 2023 15:31:46 +0100
 from code version db08e394c+  default  Mon May 1 16:40:39 2023 +0100
 Compiler: GNU Fortran 10.2.0; Optimisation: fast
 Comms   : Open MPI v4.0.5
 MATHLIBS: openblas (LAPACK version 3.9.0)
 FFT Lib : fftw3 version fftw-3.3.8-sse2-avx-avx2-avx2_128
 Fundamental constants values: CODATA 2018

 Run started: Mon, 05 Feb 2024 20:04:30 +0000
 Info: number of up-spin electrons is not equal to the
       number of down-spins but spin_polarized=false
     - consider setting spin_polarized=true.

 Atomic calculation performed for Al: 1s2 2s2 2p6 3s2 3p1

 Converged in 54 iterations to an ae energy of -6603.783 eV

   ============================================================                
   | Pseudopotential Report - Date of generation  5-02-2024   |                
   ------------------------------------------------------------                
   | Element: Al Ionic charge:  3.00 Level of theory: PBE     |                
   | Atomic Solver: Koelling-Harmon                           |                
   |                                                          |                
   |               Reference Electronic Structure             |                
   |         Orbital         Occupation         Energy        |                
   |            3s              2.000           -0.285        |                
   |            3p              1.000           -0.100        |                
   |                                                          |                
   |                 Pseudopotential Definition               |                
   |        Beta     l      e      Rc     scheme   norm       |                
   |          1      0   -0.285   2.192     qc      0         |                
   |          2      0    0.250   2.192     qc      0         |                
   |          3      1   -0.100   2.192     qc      0         |                
   |          4      1    0.250   2.192     qc      0         |                
   |          5      2    0.000   2.000     qc      0         |                
   |          6      2    0.250   2.000     qc      0         |                
   |         loc     3    0.000   2.192     pn      0         |                
   |                                                          |                
   | Augmentation charge Rinner = 1.398                       |                
   | Partial core correction Rc = 1.398                       |                
   ------------------------------------------------------------                
   | "3|2.2|2.2|1.4|4|5|5|30:31:32U2U2"                       |                
   ------------------------------------------------------------                
   |      Author: Chris J. Pickard, Cambridge University      |                
   ============================================================                

 Atomic calculation performed for Ti: 1s2 2s2 2p6 3s2 3p6 3d2 4s2

 Converged in 79 iterations to an ae energy of -23226.658 eV

   ============================================================                
   | Pseudopotential Report - Date of generation  5-02-2024   |                
   ------------------------------------------------------------                
   | Element: Ti Ionic charge: 12.00 Level of theory: PBE     |                
   | Atomic Solver: Koelling-Harmon                           |                
   |                                                          |                
   |               Reference Electronic Structure             |                
   |         Orbital         Occupation         Energy        |                
   |            3s              2.000           -2.302        |                
   |            3p              6.000           -1.428        |                
   |            4s              2.000           -0.164        |                
   |            3d              2.000           -0.157        |                
   |                                                          |                
   |                 Pseudopotential Definition               |                
   |        Beta     l      e      Rc     scheme   norm       |                
   |          1      0   -2.302   1.793     qc      0         |                
   |          2      0   -0.164   1.793     qc      0         |                
   |          3      0    0.250   1.793     qc      0         |                
   |          4      1   -1.428   1.793     qc      0         |                
   |          5      1    0.250   1.793     qc      0         |                
   |          6      2   -0.157   1.793     qc      0         |                
   |          7      2    0.250   1.793     qc      0         |                
   |         loc     3    0.000   1.793     pn      0         |                
   |                                                          |                
   | Augmentation charge Rinner = 1.263                       |                
   | Partial core correction Rc = 1.263                       |                
   ------------------------------------------------------------                
   | "3|1.8|9|10|11|30U:40:31:32(qc=5.5)"                     |                
   ------------------------------------------------------------                
   |      Author: Chris J. Pickard, Cambridge University      |                
   ============================================================                

 Atomic calculation performed for V: 1s2 2s2 2p6 3s2 3p6 3d3 4s2

 Converged in 81 iterations to an ae energy of -25823.733 eV

   ============================================================                
   | Pseudopotential Report - Date of generation  5-02-2024   |                
   ------------------------------------------------------------                
   | Element: V Ionic charge: 13.00 Level of theory: PBE      |                
   | Atomic Solver: Koelling-Harmon                           |                
   |                                                          |                
   |               Reference Electronic Structure             |                
   |         Orbital         Occupation         Energy        |                
   |            3s              2.000           -2.581        |                
   |            3p              6.000           -1.618        |                
   |            3d              3.000           -0.190        |                
   |            4s              2.000           -0.173        |                
   |                                                          |                
   |                 Pseudopotential Definition               |                
   |        Beta     l      e      Rc     scheme   norm       |                
   |          1      0   -2.581   1.803     qc      0         |                
   |          2      0   -0.173   1.803     qc      0         |                
   |          3      0    0.250   1.803     qc      0         |                
   |          4      1   -1.618   1.803     qc      0         |                
   |          5      1    0.250   1.803     qc      0         |                
   |          6      2   -0.190   1.803     qc      0         |                
   |          7      2    0.250   1.803     qc      0         |                
   |         loc     3    0.000   1.803     pn      0         |                
   |                                                          |                
   | Augmentation charge Rinner = 0.600                       |                
   | Partial core correction Rc = 0.600                       |                
   ------------------------------------------------------------                
   | "3|1.8|1.8|0.6|12|14|16|30U:40:31:32(qc=7)"              |                
   ------------------------------------------------------------                
   |      Author: Chris J. Pickard, Cambridge University      |                
   ============================================================                

 Pseudo atomic calculation performed for Al 3s2 3p1

 Converged in 20 iterations to a total energy of -107.1308 eV

 Pseudo atomic calculation performed for Ti 3s2 3p6 3d2 4s2

 Converged in 45 iterations to a total energy of -1587.0236 eV

 Pseudo atomic calculation performed for V 3s2 3p6 3d3 4s2

 Converged in 46 iterations to a total energy of -2065.7874 eV
 Calculation parallelised over 240 processes.
 Data is distributed by G-vector(16-way) and k-point(15-way)

 ************************************ Title ************************************
 

 ***************************** General Parameters ******************************
  
 output verbosity                               : normal  (1)
 write checkpoint data to                       : sqs_hex_sc3x3x3_Ti70Al8V3_frame0_geomopti.check
 type of calculation                            : geometry optimization
 stress calculation                             : on
 density difference calculation                 : off
 electron localisation func (ELF) calculation   : off
 Hirshfeld analysis                             : off
 polarisation (Berry phase) analysis            : off
 molecular orbital projected DOS                : off
 deltaSCF calculation                           : off
 unlimited duration calculation
 timing information                             : on
 memory usage estimate                          : on
 write extra output files                       : on
 write final potential to formatted file        : off
 write final density to formatted file          : off
 write BibTeX reference list                    : on
 write OTFG pseudopotential files               : on
 write electrostatic potential file             : on
 write bands file                               : on
 checkpoint writing                             : both castep_bin and check files
  
 output         length unit                     : A
 output           mass unit                     : amu
 output           time unit                     : ps
 output         charge unit                     : e
 output           spin unit                     : hbar/2
 output         energy unit                     : eV
 output          force unit                     : eV/A
 output       velocity unit                     : A/ps
 output       pressure unit                     : GPa
 output     inv_length unit                     : 1/A
 output      frequency unit                     : cm-1
 output force constant unit                     : eV/A**2
 output         volume unit                     : A**3
 output   IR intensity unit                     : (D/A)**2/amu
 output         dipole unit                     : D
 output         efield unit                     : eV/A/e
 output        entropy unit                     : J/mol/K
 output    efield chi2 unit                     : pm/V
  
 wavefunctions paging                           : none
 random number generator seed                   :  200430193
 data distribution                              : k-point only
 optimization strategy                          : maximize speed(+++)

 *********************** Exchange-Correlation Parameters ***********************
  
 using functional                               : Perdew Burke Ernzerhof
 relativistic treatment                         : Koelling-Harmon
 DFT+D: Semi-empirical dispersion correction    : off

 ************************* Pseudopotential Parameters **************************
  
 pseudopotential representation                 : reciprocal space
 <beta|phi> representation                      : reciprocal space
 spin-orbit coupling                            : off

 **************************** Basis Set Parameters *****************************
  
 plane wave basis set cut-off                   :   800.0000   eV
 size of standard grid                          :     2.0000
 size of   fine   gmax                          :    28.9810   1/A
 largest prime factor in FFT                    :          5
 finite basis set correction                    : automatic
 number of sample energies                      :          3
           sample  spacing                      :     5.0000   eV

 **************************** Electronic Parameters ****************************
  
 number of  electrons                           :  903.0    
 net charge of system                           :  0.000    
 treating system as non-spin-polarized
 number of bands                                :        487

 ********************* Electronic Minimization Parameters **********************
  
 Method: Treating system as metallic with density mixing treatment of electrons,
         and number of  SD  steps               :          1
         and number of  CG  steps               :          4
  
 total energy / atom convergence tol.           : 0.1000E-07   eV
 eigen-energy convergence tolerance             : 0.1663E-08   eV
 max force / atom convergence tol.              : ignored
 convergence tolerance window                   :          3   cycles
 max. number of SCF cycles                      :         30
 number of fixed-spin iterations                :         10
 smearing scheme                                : Gaussian
 smearing width                                 : 0.5000E-01   eV
 Fermi energy convergence tolerance             : 0.2721E-13   eV
 periodic dipole correction                     : NONE

 ************************** Density Mixing Parameters **************************
  
 density-mixing scheme                          : Pulay
 max. length of mixing history                  :         20
 charge density mixing amplitude                : 0.8000    
 cut-off energy for mixing                      :  800.0       eV
 charge density mixing g-vector                 :  1.500       1/A

 *********************** Population Analysis Parameters ************************
  
 Population analysis with cutoff                :  3.000       A
 Population analysis output                     : summary and pdos components

 ********************** Geometry Optimization Parameters ***********************
  
 optimization method                            : LBFGS
 max. no. of LBFGS updates                      : unbounded
 variable cell method                           : fixed basis quality
 max. number of steps                           :         30
 estimated bulk modulus                         :  500.0       GPa
 estimated <frequency>                          :  1668.       cm-1
 geom line minimiser                            : on
 with line minimiser tolerance                  :     0.4000
 total energy convergence tolerance             : 0.2000E-04   eV/atom
        max ionic |force| tolerance             : 0.5000E-01   eV/A
 max ionic |displacement| tolerance             : 0.1000E-02   A
   max |stress component| tolerance             : 0.1000       GPa
 convergence tolerance window                   :          2   steps
 backup results every                           :          5   steps
 write geom trajectory file                     : on

 ******************************* Developer Code ********************************
  
 PARALLEL: kpoint=15 : ENDPARALLEL
 no_improve_wvfn

 *******************************************************************************
  

                           -------------------------------
                                      Unit Cell
                           -------------------------------
        Real Lattice(A)                      Reciprocal Lattice(1/A)
     6.8427830   -11.8520480     0.0000000        0.459110373  -0.265067493   0.000000000
     6.8427830    11.8520480     0.0000000        0.459110373   0.265067493   0.000000000
     0.0000000     0.0000000     8.4605670        0.000000000   0.000000000   0.742643526

                       Lattice parameters(A)       Cell Angles
                    a =     13.685566          alpha =   90.000000
                    b =     13.685566          beta  =   90.000000
                    c =      8.460567          gamma =  120.000001

                       Current cell volume =          1372.320763       A**3
                                   density =             2.710275   AMU/A**3
                                           =             4.500518     g/cm^3

                           -------------------------------
                                     Cell Contents
                           -------------------------------
                         Total number of ions in cell =   81
                      Total number of species in cell =    3
                        Max number of any one species =   70

            xxxxxxxxxxxxxxxxxxxxxxxxxxxxxxxxxxxxxxxxxxxxxxxxxxxxxxxxxxxx
            x  Element    Atom        Fractional coordinates of atoms  x
            x            Number           u          v          w      x
            x----------------------------------------------------------x
            x  Al           1        -0.000277  -0.001575   0.330585   x 
            x  Al           2         0.562220   0.118409   0.793710   x 
            x  Al           3         0.551778   0.443530   0.652707   x 
            x  Al           4         0.560972   0.441686   0.973670   x 
            x  Al           5         0.336402   0.664873  -0.004456   x 
            x  Al           6         0.558282   0.777719   0.155968   x 
            x  Al           7         0.450900   0.901668   0.838283   x 
            x  Al           8         0.779436   0.889093   0.831771   x 
            x  Ti           1        -0.002246  -0.002617  -0.004171   x 
            x  Ti           2         0.109396   0.220467   0.163240   x 
            x  Ti           3         0.222030   0.110376   0.162260   x 
            x  Ti           4         0.107496   0.220491   0.497699   x 
            x  Ti           5         0.221783   0.110463   0.496203   x 
            x  Ti           6        -0.001985  -0.002639   0.665841   x 
            x  Ti           7         0.109138   0.218325   0.830710   x 
            x  Ti           8         0.224361   0.111356   0.829303   x 
            x  Ti           9         0.003337   0.336965  -0.001998   x 
            x  Ti          10         0.115531   0.556353   0.162810   x 
            x  Ti          11         0.224577   0.444505   0.165157   x 
            x  Ti          12         0.002952   0.334966   0.332561   x 
            x  Ti          13         0.112851   0.557196   0.495829   x 
            x  Ti          14         0.223076   0.446578   0.500506   x 
            x  Ti          15        -0.000517   0.335466   0.666133   x 
            x  Ti          16         0.108882   0.555760   0.829101   x 
            x  Ti          17         0.221696   0.444090   0.832353   x 
            x  Ti          18         0.000949   0.666024  -0.003205   x 
            x  Ti          19         0.113091   0.890033   0.162073   x 
            x  Ti          20         0.217111   0.774675   0.163922   x 
            x  Ti          21        -0.005730   0.663956   0.328750   x 
            x  Ti          22         0.113322   0.888925   0.494639   x 
            x  Ti          23         0.220978   0.776136   0.492955   x 
            x  Ti          24        -0.004599   0.664487   0.662263   x 
            x  Ti          25         0.109415   0.889073   0.828024   x 
            x  Ti          26         0.224445   0.779812   0.827737   x 
            x  Ti          27         0.334620   0.000469  -0.006901   x 
            x  Ti          28         0.450771   0.234834   0.159684   x 
            x  Ti          29         0.556670   0.110360   0.141534   x 
            x  Ti          30         0.336686   0.004910   0.327091   x 
            x  Ti          31         0.452282   0.237152   0.488803   x 
            x  Ti          32         0.334619   0.002104   0.658666   x 
            x  Ti          33         0.450808   0.233486   0.825501   x 
            x  Ti          34         0.325891   0.330200  -0.000511   x 
            x  Ti          35         0.451648   0.548393   0.154045   x 
            x  Ti          36         0.559052   0.448130   0.308125   x 
            x  Ti          37         0.320271   0.326314   0.329124   x 
            x  Ti          38         0.449565   0.545618   0.489905   x 
            x  Ti          39         0.321023   0.327468   0.658326   x 
            x  Ti          40         0.450096   0.548729   0.821511   x 
            x  Ti          41         0.439295   0.886085   0.165227   x 
            x  Ti          42         0.335987   0.666470   0.330890   x 
            x  Ti          43         0.446527   0.896714   0.507792   x 
            x  Ti          44         0.552271   0.774571   0.482315   x 
            x  Ti          45         0.337283   0.669179   0.661310   x 
            x  Ti          46         0.554898   0.777985   0.829367   x 
            x  Ti          47         0.667255  -0.003053  -0.005012   x 
            x  Ti          48         0.779949   0.221293   0.168745   x 
            x  Ti          49         0.888619   0.112553   0.165830   x 
            x  Ti          50         0.662406  -0.004921   0.330038   x 
            x  Ti          51         0.769456   0.217857   0.501485   x 
            x  Ti          52         0.886927   0.114938   0.495139   x 
            x  Ti          53         0.667293  -0.005019   0.662931   x 
            x  Ti          54         0.782843   0.225435   0.838713   x 
            x  Ti          55         0.889310   0.111959   0.829753   x 
            x  Ti          56         0.768957   0.543881   0.132842   x 
            x  Ti          57         0.893136   0.443500   0.165223   x 
            x  Ti          58         0.672370   0.326421   0.320432   x 
            x  Ti          59         0.761736   0.547354   0.486186   x 
            x  Ti          60         0.888877   0.444262   0.500913   x 
            x  Ti          61         0.670651   0.333983   0.663825   x 
            x  Ti          62         0.877393   0.448748   0.837157   x 
            x  Ti          63         0.671597   0.674765  -0.005367   x 
            x  Ti          64         0.782643   0.892746   0.161480   x 
            x  Ti          65         0.888598   0.774577   0.169714   x 
            x  Ti          66         0.676314   0.683302   0.325817   x 
            x  Ti          67         0.780737   0.892195   0.504558   x 
            x  Ti          68         0.890150   0.775360   0.500312   x 
            x  Ti          69         0.671090   0.676766   0.657682   x 
            x  Ti          70         0.885282   0.769744   0.835346   x 
            x  V            1         0.552533   0.117945   0.474232   x 
            x  V            2         0.663536   0.315397  -0.004806   x 
            x  V            3         0.759028   0.552218   0.802094   x 
            xxxxxxxxxxxxxxxxxxxxxxxxxxxxxxxxxxxxxxxxxxxxxxxxxxxxxxxxxxxx


                         No user defined ionic velocities

                           -------------------------------
                                   Details of Species
                           -------------------------------

                               Mass of species in AMU
                                    Al   26.9815400
                                    Ti   47.8670000
                                    V   50.9415000

                          Electric Quadrupole Moment (Barn)
                                    Al    0.1466000 Isotope 27
                                    Ti    0.3020000 Isotope 47
                                    V   -0.0520000 Isotope 51

                          Files used for pseudopotentials:
                                    Al 3|2.2|2.2|1.4|4|5|5|30:31:32U2U2
                                    Ti 3|1.8|9|10|11|30U:40:31:32(qc=5.5)
                                    V 3|1.8|1.8|0.6|12|14|16|30U:40:31:32(qc=7)

                           -------------------------------
                              k-Points For BZ Sampling
                           -------------------------------
                       MP grid size for SCF calculation is  5  5  6
                            with an offset of   0.000  0.000  0.000
                       Number of kpoints used =            75

                           -------------------------------
                               Symmetry and Constraints
                           -------------------------------

                      Maximum deviation from symmetry =  0.00000         ANG

                      Number of symmetry operations   =           1
                      Number of ionic constraints     =           3
                      Point group of crystal =     1: C1, 1, 1
                      Space group of crystal =     1: P1, P 1

             Set iprint > 1 for details on symmetry rotations/translations

                         Centre of mass is constrained
             Set iprint > 1 for details of linear ionic constraints

                         Number of cell constraints= 4
                         Cell constraints are:  1 1 3 0 0 0

                         External pressure/stress (GPa)
                          0.00000   0.00000   0.00000
                                    0.00000   0.00000
                                              0.00000
 
+---------------- MEMORY AND SCRATCH DISK ESTIMATES PER PROCESS --------------+
|                                                     Memory          Disk    |
| Baseline code, static data and system overhead      592.0 MB         0.0 MB |
| BLAS internal memory storage                          0.0 MB         0.0 MB |
| Model and support data                              927.3 MB         0.0 MB |
| Electronic energy minimisation requirements         441.1 MB         0.0 MB |
| Force calculation requirements                       15.9 MB         0.0 MB |
| Stress calculation requirements                      17.2 MB         0.0 MB |
|                                               ----------------------------- |
| Approx. total storage required per process         1960.4 MB         0.0 MB |
|                                                                             |
| Requirements will fluctuate during execution and may exceed these estimates |
+-----------------------------------------------------------------------------+
Calculating finite basis set correction with  3 cut-off energies.
Calculating total energy with cut-off of  790.000 eV.
------------------------------------------------------------------------ <-- SCF
SCF loop      Energy           Fermi           Energy gain       Timer   <-- SCF
                               energy          per atom          (sec)   <-- SCF
------------------------------------------------------------------------ <-- SCF
Initial  -1.06798596E+005  0.00000000E+000                        34.63  <-- SCF
      1  -1.15664060E+005  1.18442730E+001   1.09450172E+002     226.26  <-- SCF
      2  -1.18524625E+005  9.19156606E+000   3.53156253E+001     385.90  <-- SCF
      3  -1.18686506E+005  8.97166255E+000   1.99852834E+000     549.03  <-- SCF
      4  -1.18709634E+005  8.14876584E+000   2.85533559E-001     741.87  <-- SCF
      5  -1.18694598E+005  8.36697758E+000  -1.85638556E-001     940.55  <-- SCF
      6  -1.18687828E+005  8.53251706E+000  -8.35683625E-002    1129.37  <-- SCF
      7  -1.18682881E+005  8.54815770E+000  -6.10797573E-002    1326.60  <-- SCF
      8  -1.18684167E+005  8.49544638E+000   1.58716341E-002    1518.77  <-- SCF
      9  -1.18682796E+005  8.49470212E+000  -1.69172343E-002    1698.56  <-- SCF
     10  -1.18682580E+005  8.47872468E+000  -2.66915458E-003    1884.18  <-- SCF
     11  -1.18682674E+005  8.47366663E+000   1.15771308E-003    2070.32  <-- SCF
     12  -1.18682577E+005  8.47086307E+000  -1.20166174E-003    2246.47  <-- SCF
     13  -1.18682559E+005  8.47139790E+000  -2.11486547E-004    2431.45  <-- SCF
     14  -1.18682560E+005  8.47188307E+000   1.30339131E-005    2617.33  <-- SCF
     15  -1.18682558E+005  8.47188678E+000  -3.29080088E-005    2798.20  <-- SCF
     16  -1.18682558E+005  8.47191628E+000   4.53718496E-006    2992.38  <-- SCF
     17  -1.18682558E+005  8.47202688E+000  -3.88909154E-006    3169.23  <-- SCF
     18  -1.18682558E+005  8.47202394E+000   2.02290874E-007    3339.20  <-- SCF
     19  -1.18682558E+005  8.47201648E+000  -2.37941096E-007    3489.74  <-- SCF
     20  -1.18682558E+005  8.47200925E+000   2.42117806E-008    3643.30  <-- SCF
     21  -1.18682558E+005  8.47200057E+000  -2.76900299E-008    3773.61  <-- SCF
     22  -1.18682558E+005  8.47199964E+000   4.55252238E-010    3881.43  <-- SCF
     23  -1.18682558E+005  8.47199772E+000  -3.18065490E-010    3988.55  <-- SCF
------------------------------------------------------------------------ <-- SCF
 
Final energy, E             =  -118682.4465096     eV
Final free energy (E-TS)    =  -118682.5578730     eV
(energies not corrected for finite basis set)
 
NB est. 0K energy (E-0.5TS)      =  -118682.5021913     eV
 
Calculating total energy with cut-off of  795.000 eV.
------------------------------------------------------------------------ <-- SCF
SCF loop      Energy           Fermi           Energy gain       Timer   <-- SCF
                               energy          per atom          (sec)   <-- SCF
------------------------------------------------------------------------ <-- SCF
Initial  -1.18682447E+005  0.00000000E+000                      4019.18  <-- SCF
      1  -1.18682559E+005  8.47197343E+000   1.39279637E-003    4162.33  <-- SCF
      2  -1.18682559E+005  8.47197340E+000   5.36721001E-008    4311.14  <-- SCF
      3  -1.18682560E+005  8.47216940E+000   4.28724384E-006    4491.79  <-- SCF
      4  -1.18682559E+005  8.47193748E+000  -4.35202777E-006    4668.38  <-- SCF
      5  -1.18682559E+005  8.47199741E+000  -7.75083740E-008    4835.16  <-- SCF
      6  -1.18682559E+005  8.47199337E+000   1.64498827E-008    4968.89  <-- SCF
      7  -1.18682559E+005  8.47199436E+000  -1.14424136E-009    5076.86  <-- SCF
      8  -1.18682559E+005  8.47199512E+000  -3.28148257E-010    5182.18  <-- SCF
------------------------------------------------------------------------ <-- SCF
 
Final energy, E             =  -118682.4479560     eV
Final free energy (E-TS)    =  -118682.5593197     eV
(energies not corrected for finite basis set)
 
NB est. 0K energy (E-0.5TS)      =  -118682.5036379     eV
 
Calculating total energy with cut-off of  800.000 eV.
------------------------------------------------------------------------ <-- SCF
SCF loop      Energy           Fermi           Energy gain       Timer   <-- SCF
                               energy          per atom          (sec)   <-- SCF
------------------------------------------------------------------------ <-- SCF
Initial  -1.18682448E+005  0.00000000E+000                      5212.67  <-- SCF
      1  -1.18682561E+005  8.47200075E+000   1.39201812E-003    5354.75  <-- SCF
      2  -1.18682561E+005  8.47200065E+000   9.32585737E-008    5507.51  <-- SCF
      3  -1.18682561E+005  8.47185978E+000   8.02420476E-006    5692.51  <-- SCF
      4  -1.18682561E+005  8.47206210E+000  -8.12019576E-006    5870.77  <-- SCF
      5  -1.18682561E+005  8.47199286E+000  -2.35945930E-007    6036.36  <-- SCF
      6  -1.18682561E+005  8.47200111E+000   5.01287711E-008    6191.13  <-- SCF
      7  -1.18682561E+005  8.47198377E+000  -9.70817759E-009    6309.00  <-- SCF
      8  -1.18682561E+005  8.47198905E+000  -3.61543606E-009    6416.95  <-- SCF
      9  -1.18682561E+005  8.47198991E+000  -9.50224470E-011    6522.97  <-- SCF
------------------------------------------------------------------------ <-- SCF
 
Final energy, E             =  -118682.4493301     eV
Final free energy (E-TS)    =  -118682.5606924     eV
(energies not corrected for finite basis set)
 
NB est. 0K energy (E-0.5TS)      =  -118682.5050112     eV
 
 For future reference: finite basis dEtot/dlog(Ecut) =      -0.223987eV
 Total energy corrected for finite basis set = -118682.560693 eV
 
+---------------- MEMORY AND SCRATCH DISK ESTIMATES PER PROCESS --------------+
|                                                     Memory          Disk    |
| Model and support data                              934.5 MB         0.0 MB |
| Electronic energy minimisation requirements         441.1 MB         0.0 MB |
| Geometry minimisation requirements                  613.0 MB         0.0 MB |
|                                               ----------------------------- |
| Approx. total storage required per process         1988.6 MB         0.0 MB |
|                                                                             |
| Requirements will fluctuate during execution and may exceed these estimates |
+-----------------------------------------------------------------------------+
 

 ************************************** Forces **************************************
 *                                                                                  *
 *                           Cartesian components (eV/A)                            *
 * -------------------------------------------------------------------------------- *
 *                         x                    y                    z              *
 *                                                                                  *
 * Al              1      0.03598              0.05201              0.02731         *
 * Al              2     -0.28995             -0.00171              0.06687         *
 * Al              3      0.14620             -0.00074             -0.02955         *
 * Al              4      0.04311              0.08375             -0.03323         *
 * Al              5     -0.06439              0.02248             -0.05888         *
 * Al              6     -0.12675              0.10685             -0.01907         *
 * Al              7     -0.15423             -0.19617              0.19499         *
 * Al              8     -0.01612              0.08190              0.06243         *
 * Ti              1      0.06869             -0.09008              0.10555         *
 * Ti              2     -0.18452              0.07008              0.04176         *
 * Ti              3      0.06725             -0.08224             -0.01654         *
 * Ti              4     -0.16651              0.05116             -0.06322         *
 * Ti              5     -0.01724              0.00576             -0.07807         *
 * Ti              6      0.06993             -0.01423             -0.10910         *
 * Ti              7     -0.04693              0.13825              0.01386         *
 * Ti              8      0.10763             -0.04799              0.02252         *
 * Ti              9      0.03542             -0.05725             -0.07704         *
 * Ti             10      0.00211              0.04805              0.02818         *
 * Ti             11      0.12428             -0.09232             -0.04772         *
 * Ti             12     -0.09072              0.02083             -0.00446         *
 * Ti             13     -0.03205              0.03880             -0.00502         *
 * Ti             14      0.07742             -0.02161             -0.07621         *
 * Ti             15     -0.00705             -0.04658              0.08707         *
 * Ti             16      0.11028              0.02789              0.02329         *
 * Ti             17      0.03887              0.05360             -0.06636         *
 * Ti             18     -0.13321              0.02067             -0.17494         *
 * Ti             19     -0.10375              0.05308              0.05930         *
 * Ti             20      0.17925             -0.04092              0.02536         *
 * Ti             21      0.04274             -0.01513              0.00878         *
 * Ti             22     -0.01808              0.04517             -0.03343         *
 * Ti             23      0.04614              0.00704             -0.05212         *
 * Ti             24      0.01184             -0.00331              0.18463         *
 * Ti             25     -0.02093             -0.14928             -0.02649         *
 * Ti             26     -0.00189             -0.09933              0.05755         *
 * Ti             27     -0.09790              0.11378              0.10200         *
 * Ti             28      0.06795             -0.11566              0.05069         *
 * Ti             29     -0.00693              0.07588              0.12000         *
 * Ti             30     -0.00622              0.09723             -0.08820         *
 * Ti             31     -0.09600             -0.10275             -0.22312         *
 * Ti             32      0.04986             -0.01872              0.08175         *
 * Ti             33     -0.10561             -0.26860             -0.03719         *
 * Ti             34     -0.01457              0.05320             -0.14858         *
 * Ti             35      0.02506              0.15116              0.23264         *
 * Ti             36     -0.20573              0.01850              0.36032         *
 * Ti             37      0.07522             -0.03611             -0.13024         *
 * Ti             38      0.10457              0.13877             -0.10141         *
 * Ti             39      0.09219             -0.06437              0.21180         *
 * Ti             40     -0.06100              0.06662             -0.05894         *
 * Ti             41      0.00598             -0.08304             -0.00497         *
 * Ti             42      0.00382              0.04963             -0.14877         *
 * Ti             43     -0.04417             -0.15063             -0.01103         *
 * Ti             44      0.10233              0.08656             -0.00318         *
 * Ti             45      0.06207              0.06081              0.05022         *
 * Ti             46     -0.01120             -0.01251             -0.06461         *
 * Ti             47      0.02296              0.06898              0.03855         *
 * Ti             48      0.08431             -0.02562             -0.07290         *
 * Ti             49     -0.05310             -0.02644             -0.00133         *
 * Ti             50      0.09335              0.03535             -0.09749         *
 * Ti             51      0.05867             -0.22193             -0.09001         *
 * Ti             52     -0.02871             -0.04640             -0.06521         *
 * Ti             53     -0.05889             -0.03121              0.01910         *
 * Ti             54     -0.01776             -0.12609              0.12758         *
 * Ti             55      0.08658              0.19275              0.04654         *
 * Ti             56      0.21762             -0.01698              0.34202         *
 * Ti             57     -0.06598              0.03176             -0.16697         *
 * Ti             58      0.02991              0.26983              0.08738         *
 * Ti             59      0.11384             -0.12599             -0.20143         *
 * Ti             60     -0.02159              0.01097             -0.06604         *
 * Ti             61     -0.16022              0.15821             -0.01463         *
 * Ti             62     -0.00761              0.04492              0.05767         *
 * Ti             63     -0.13620             -0.06771             -0.04079         *
 * Ti             64      0.05285              0.00027              0.04916         *
 * Ti             65     -0.01199              0.03182             -0.06317         *
 * Ti             66     -0.13964             -0.06910             -0.11082         *
 * Ti             67      0.11534              0.04027             -0.05683         *
 * Ti             68     -0.04333              0.02531             -0.17381         *
 * Ti             69     -0.18005             -0.08922              0.06012         *
 * Ti             70     -0.02564             -0.08976             -0.12838         *
 * V               1     -0.11686              0.03341             -0.00053         *
 * V               2      0.15831              0.18293              0.05545         *
 * V               3      0.36128             -0.21851              0.23960         *
 *                                                                                  *
 ************************************************************************************

 ***************** Stress Tensor *****************
 *                                               *
 *          Cartesian components (GPa)           *
 * --------------------------------------------- *
 *             x             y             z     *
 *                                               *
 *  x      0.196424      0.054760     -0.253186  *
 *  y      0.054760      0.320470      0.274065  *
 *  z     -0.253186      0.274065     -0.049418  *
 *                                               *
 *  Pressure:   -0.1558                          *
 *                                               *
 *************************************************

 *********** Constrained Stress Tensor ***********
 *                                               *
 *          Cartesian components (GPa)           *
 * --------------------------------------------- *
 *             x             y             z     *
 *                                               *
 *  x      0.258430      0.000000     -0.000000  *
 *  y      0.000000      0.258430      0.000000  *
 *  z     -0.000000      0.000000     -0.049449  *
 *                                               *
 *  Pressure:   -0.1558                          *
 *                                               *
 *************************************************
 LBFGS: finished iteration     0 with enthalpy= -1.18682561E+005 eV
  
 +-----------+-----------------+-----------------+------------+-----+ <-- LBFGS
 | Parameter |      value      |    tolerance    |    units   | OK? | <-- LBFGS
 +-----------+-----------------+-----------------+------------+-----+ <-- LBFGS
 |  dE/ion   |   0.000000E+000 |   2.000000E-005 |         eV | No  | <-- LBFGS
 |  |F|max   |   4.854620E-001 |   5.000000E-002 |       eV/A | No  | <-- LBFGS
 |  |dR|max  |   0.000000E+000 |   1.000000E-003 |          A | No  | <-- LBFGS
 |   Smax    |   2.584300E-001 |   1.000000E-001 |        GPa | No  | <-- LBFGS
 +-----------+-----------------+-----------------+------------+-----+ <-- LBFGS
  

================================================================================
 Starting LBFGS iteration          1 ...
================================================================================
  
 +------------+-------------+-------------+-----------------+ <-- min LBFGS
 |    Step    |   lambda    |   F.delta'  |    enthalpy     | <-- min LBFGS
 +------------+-------------+-------------+-----------------+ <-- min LBFGS
 |  previous  |    0.000000 |    0.549001 |  -118682.560693 | <-- min LBFGS
 +------------+-------------+-------------+-----------------+ <-- min LBFGS
  

--------------------------------------------------------------------------------
 LBFGS: starting iteration         1 with trial guess (lambda=  1.000000)
--------------------------------------------------------------------------------

                           -------------------------------
                                      Unit Cell
                           -------------------------------
        Real Lattice(A)              Reciprocal Lattice(1/A)
     6.8416041   -11.8500061     0.0000000        0.459189485  -0.265113169  -0.000000000
     6.8416041    11.8500061    -0.0000000        0.459189485   0.265113169  -0.000000000
     0.0000000    -0.0000000     8.4608459       -0.000000000   0.000000000   0.742619044

                       Lattice parameters(A)       Cell Angles
                    a =     13.683208          alpha =   90.000000
                    b =     13.683208          beta  =   90.000000
                    c =      8.460846          gamma =  120.000001

                Current cell volume =          1371.893163 A**3
                            density =             2.711120 amu/A**3
                                    =             4.501920 g/cm^3

                           -------------------------------
                                     Cell Contents
                           -------------------------------

            xxxxxxxxxxxxxxxxxxxxxxxxxxxxxxxxxxxxxxxxxxxxxxxxxxxxxxxxxxxxxxxxx
            x  Element         Atom        Fractional coordinates of atoms  x
            x                 Number           u          v          w      x
            x---------------------------------------------------------------x
            x  Al                1        -0.000276  -0.001565   0.330592   x
            x  Al                2         0.562175   0.118364   0.793726   x
            x  Al                3         0.551801   0.443553   0.652699   x
            x  Al                4         0.560971   0.441700   0.973662   x
            x  Al                5         0.336390   0.664865  -0.004471   x
            x  Al                6         0.558253   0.777709   0.155963   x
            x  Al                7         0.450894   0.901627   0.838332   x
            x  Al                8         0.779426   0.889098   0.831786   x
            x  Ti                1        -0.002227  -0.002615  -0.004144   x
            x  Ti                2         0.109361   0.220445   0.163251   x
            x  Ti                3         0.222048   0.110380   0.162256   x
            x  Ti                4         0.107466   0.220470   0.497683   x
            x  Ti                5         0.221779   0.110461   0.496183   x
            x  Ti                6        -0.001973  -0.002630   0.665813   x
            x  Ti                7         0.109119   0.218330   0.830714   x
            x  Ti                8         0.224382   0.111368   0.829309   x
            x  Ti                9         0.003348   0.336966  -0.002018   x
            x  Ti               10         0.115527   0.556358   0.162817   x
            x  Ti               11         0.224605   0.444516   0.165145   x
            x  Ti               12         0.002936   0.334954   0.332560   x
            x  Ti               13         0.112842   0.557194   0.495828   x
            x  Ti               14         0.223090   0.446588   0.500487   x
            x  Ti               15        -0.000514   0.335461   0.666155   x
            x  Ti               16         0.108896   0.555779   0.829107   x
            x  Ti               17         0.221697   0.444101   0.832336   x
            x  Ti               18         0.000927   0.666005  -0.003249   x
            x  Ti               19         0.113070   0.890021   0.162088   x
            x  Ti               20         0.217142   0.774700   0.163928   x
            x  Ti               21        -0.005722   0.663962   0.328752   x
            x  Ti               22         0.113315   0.888927   0.494631   x
            x  Ti               23         0.220984   0.776144   0.492941   x
            x  Ti               24        -0.004597   0.664488   0.662309   x
            x  Ti               25         0.109425   0.889056   0.828017   x
            x  Ti               26         0.224454   0.779803   0.827752   x
            x  Ti               27         0.334594   0.000464  -0.006875   x
            x  Ti               28         0.450792   0.234834   0.159697   x
            x  Ti               29         0.556662   0.110366   0.141564   x
            x  Ti               30         0.336676   0.004918   0.327069   x
            x  Ti               31         0.452276   0.237128   0.488746   x
            x  Ti               32         0.334629   0.002110   0.658686   x
            x  Ti               33         0.450816   0.233445   0.825492   x
            x  Ti               34         0.325884   0.330202  -0.000549   x
            x  Ti               35         0.451638   0.548410   0.154104   x
            x  Ti               36         0.559018   0.448100   0.308216   x
            x  Ti               37         0.320286   0.326322   0.329091   x
            x  Ti               38         0.449569   0.545646   0.489880   x
            x  Ti               39         0.321044   0.327477   0.658379   x
            x  Ti               40         0.450081   0.548725   0.821496   x
            x  Ti               41         0.439303   0.886079   0.165225   x
            x  Ti               42         0.335983   0.666475   0.330853   x
            x  Ti               43         0.446534   0.896694   0.507789   x
            x  Ti               44         0.552279   0.774595   0.482315   x
            x  Ti               45         0.337287   0.669194   0.661323   x
            x  Ti               46         0.554897   0.777982   0.829351   x
            x  Ti               47         0.667253  -0.003044  -0.005002   x
            x  Ti               48         0.779965   0.221304   0.168727   x
            x  Ti               49         0.888613   0.112543   0.165829   x
            x  Ti               50         0.662417  -0.004903   0.330013   x
            x  Ti               51         0.769485   0.217846   0.501462   x
            x  Ti               52         0.886927   0.114930   0.495123   x
            x  Ti               53         0.667287  -0.005031   0.662936   x
            x  Ti               54         0.782851   0.225421   0.838745   x
            x  Ti               55         0.889307   0.111989   0.829765   x
            x  Ti               56         0.768993   0.543914   0.132928   x
            x  Ti               57         0.893123   0.443492   0.165181   x
            x  Ti               58         0.672350   0.326449   0.320454   x
            x  Ti               59         0.761765   0.547360   0.486136   x
            x  Ti               60         0.888872   0.444259   0.500897   x
            x  Ti               61         0.670612   0.333972   0.663822   x
            x  Ti               62         0.877388   0.448751   0.837172   x
            x  Ti               63         0.671582   0.674737  -0.005378   x
            x  Ti               64         0.782651   0.892754   0.161493   x
            x  Ti               65         0.888593   0.774578   0.169698   x
            x  Ti               66         0.676299   0.683274   0.325789   x
            x  Ti               67         0.780751   0.892216   0.504544   x
            x  Ti               68         0.890141   0.775356   0.500269   x
            x  Ti               69         0.671070   0.676730   0.657697   x
            x  Ti               70         0.885286   0.769732   0.835314   x
            x  V                 1         0.552512   0.117930   0.474232   x
            x  V                 2         0.663544   0.315438  -0.004792   x
            x  V                 3         0.759104   0.552255   0.802155   x
            xxxxxxxxxxxxxxxxxxxxxxxxxxxxxxxxxxxxxxxxxxxxxxxxxxxxxxxxxxxxxxxxx


------------------------------------------------------------------------ <-- SCF
SCF loop      Energy           Fermi           Energy gain       Timer   <-- SCF
                               energy          per atom          (sec)   <-- SCF
------------------------------------------------------------------------ <-- SCF
Initial  -1.18682429E+005  0.00000000E+000                      7018.77  <-- SCF
      1  -1.18682597E+005  8.48206384E+000   2.06284734E-003    7160.81  <-- SCF
      2  -1.18682602E+005  8.48202444E+000   6.34101425E-005    7367.88  <-- SCF
      3  -1.18682836E+005  8.46651904E+000   2.89637994E-003    7553.18  <-- SCF
      4  -1.18682574E+005  8.47469688E+000  -3.24078185E-003    7730.94  <-- SCF
      5  -1.18682586E+005  8.47115602E+000   1.54362693E-004    7927.65  <-- SCF
      6  -1.18682569E+005  8.47650012E+000  -2.14125800E-004    8115.79  <-- SCF
      7  -1.18682567E+005  8.47630063E+000  -2.07769162E-005    8303.40  <-- SCF
      8  -1.18682567E+005  8.47596929E+000  -1.20391454E-006    8493.51  <-- SCF
      9  -1.18682567E+005  8.47554530E+000  -3.11151766E-006    8672.62  <-- SCF
     10  -1.18682567E+005  8.47557224E+000  -9.62268794E-008    8852.55  <-- SCF
     11  -1.18682567E+005  8.47555711E+000   5.39617505E-008    9009.30  <-- SCF
     12  -1.18682567E+005  8.47559210E+000  -4.42632890E-007    9170.55  <-- SCF
     13  -1.18682567E+005  8.47556985E+000   1.30336577E-008    9323.78  <-- SCF
     14  -1.18682567E+005  8.47554354E+000  -2.38304687E-008    9447.64  <-- SCF
     15  -1.18682567E+005  8.47555341E+000  -8.76895250E-010    9552.77  <-- SCF
     16  -1.18682567E+005  8.47556158E+000  -4.43641778E-010    9657.36  <-- SCF
------------------------------------------------------------------------ <-- SCF
 
Final energy, E             =  -118682.4556250     eV
Final free energy (E-TS)    =  -118682.5668526     eV
(energies not corrected for finite basis set)
 
NB est. 0K energy (E-0.5TS)      =  -118682.5112388     eV
 

 ************************************** Forces **************************************
 *                                                                                  *
 *                           Cartesian components (eV/A)                            *
 * -------------------------------------------------------------------------------- *
 *                         x                    y                    z              *
 *                                                                                  *
 * Al              1      0.03564              0.05109              0.02677         *
 * Al              2     -0.28654             -0.00478              0.06709         *
 * Al              3      0.14408             -0.00102             -0.02871         *
 * Al              4      0.04230              0.08243             -0.03185         *
 * Al              5     -0.06335              0.02213             -0.05840         *
 * Al              6     -0.12414              0.10466             -0.01948         *
 * Al              7     -0.15360             -0.19422              0.19297         *
 * Al              8     -0.01528              0.07993              0.06157         *
 * Ti              1      0.06730             -0.08948              0.10348         *
 * Ti              2     -0.18223              0.06862              0.04120         *
 * Ti              3      0.06677             -0.08071             -0.01618         *
 * Ti              4     -0.16306              0.04976             -0.06188         *
 * Ti              5     -0.01707              0.00662             -0.07680         *
 * Ti              6      0.06918             -0.01429             -0.10730         *
 * Ti              7     -0.04663              0.13620              0.01339         *
 * Ti              8      0.10622             -0.04682              0.02154         *
 * Ti              9      0.03547             -0.05675             -0.07546         *
 * Ti             10      0.00239              0.04766              0.02751         *
 * Ti             11      0.12265             -0.09050             -0.04746         *
 * Ti             12     -0.08921              0.02125             -0.00447         *
 * Ti             13     -0.03146              0.03807             -0.00431         *
 * Ti             14      0.07676             -0.02186             -0.07584         *
 * Ti             15     -0.00679             -0.04535              0.08494         *
 * Ti             16      0.10894              0.02697              0.02298         *
 * Ti             17      0.03943              0.05295             -0.06653         *
 * Ti             18     -0.13204              0.02080             -0.17184         *
 * Ti             19     -0.10304              0.05265              0.05849         *
 * Ti             20      0.17662             -0.04052              0.02482         *
 * Ti             21      0.04264             -0.01620              0.00777         *
 * Ti             22     -0.01804              0.04467             -0.03267         *
 * Ti             23      0.04527              0.00740             -0.05081         *
 * Ti             24      0.01137             -0.00357              0.18063         *
 * Ti             25     -0.02009             -0.14748             -0.02603         *
 * Ti             26     -0.00300             -0.09837              0.05656         *
 * Ti             27     -0.09646              0.11174              0.09977         *
 * Ti             28      0.06726             -0.11364              0.04868         *
 * Ti             29     -0.00563              0.07513              0.11856         *
 * Ti             30     -0.00664              0.09583             -0.08634         *
 * Ti             31     -0.09615             -0.10169             -0.21868         *
 * Ti             32      0.04899             -0.01950              0.08050         *
 * Ti             33     -0.10336             -0.26435             -0.03577         *
 * Ti             34     -0.01475              0.05300             -0.14632         *
 * Ti             35      0.02421              0.14844              0.22809         *
 * Ti             36     -0.20242              0.01862              0.35384         *
 * Ti             37      0.07383             -0.03496             -0.12772         *
 * Ti             38      0.10303              0.13736             -0.09790         *
 * Ti             39      0.09042             -0.06319              0.20756         *
 * Ti             40     -0.06046              0.06751             -0.05692         *
 * Ti             41      0.00661             -0.08105             -0.00369         *
 * Ti             42      0.00420              0.04915             -0.14760         *
 * Ti             43     -0.04371             -0.14824             -0.00954         *
 * Ti             44      0.10163              0.08473             -0.00514         *
 * Ti             45      0.06154              0.06070              0.04985         *
 * Ti             46     -0.01238             -0.01413             -0.06343         *
 * Ti             47      0.02184              0.06882              0.03788         *
 * Ti             48      0.08359             -0.02478             -0.07164         *
 * Ti             49     -0.05249             -0.02619             -0.00175         *
 * Ti             50      0.09188              0.03541             -0.09632         *
 * Ti             51      0.05791             -0.21870             -0.08828         *
 * Ti             52     -0.02834             -0.04658             -0.06419         *
 * Ti             53     -0.05838             -0.03015              0.01925         *
 * Ti             54     -0.01856             -0.12137              0.12496         *
 * Ti             55      0.08588              0.19005              0.04590         *
 * Ti             56      0.21462             -0.01553              0.33985         *
 * Ti             57     -0.06541              0.03245             -0.16403         *
 * Ti             58      0.03001              0.26544              0.08696         *
 * Ti             59      0.11400             -0.12539             -0.19621         *
 * Ti             60     -0.02215              0.01129             -0.06547         *
 * Ti             61     -0.15892              0.15308             -0.01504         *
 * Ti             62     -0.00902              0.04300              0.05482         *
 * Ti             63     -0.13420             -0.06481             -0.04020         *
 * Ti             64      0.05093              0.00029              0.04809         *
 * Ti             65     -0.01161              0.03183             -0.06358         *
 * Ti             66     -0.13915             -0.06738             -0.10918         *
 * Ti             67      0.11248              0.03830             -0.05500         *
 * Ti             68     -0.04322              0.02527             -0.17221         *
 * Ti             69     -0.17562             -0.08737              0.05850         *
 * Ti             70     -0.02369             -0.08739             -0.12782         *
 * V               1     -0.11480              0.03347              0.00094         *
 * V               2      0.15680              0.18145              0.05601         *
 * V               3      0.35838             -0.21792              0.23429         *
 *                                                                                  *
 ************************************************************************************

 ***************** Stress Tensor *****************
 *                                               *
 *          Cartesian components (GPa)           *
 * --------------------------------------------- *
 *             x             y             z     *
 *                                               *
 *  x      0.152260      0.054076     -0.252180  *
 *  y      0.054076      0.274353      0.273863  *
 *  z     -0.252180      0.273863     -0.059008  *
 *                                               *
 *  Pressure:   -0.1225                          *
 *                                               *
 *************************************************

 *********** Constrained Stress Tensor ***********
 *                                               *
 *          Cartesian components (GPa)           *
 * --------------------------------------------- *
 *             x             y             z     *
 *                                               *
 *  x      0.213289     -0.000000     -0.000026  *
 *  y     -0.000000      0.213289     -0.000028  *
 *  z     -0.000026     -0.000028     -0.059039  *
 *                                               *
 *  Pressure:   -0.1225                          *
 *                                               *
 *************************************************
  
 +------------+-------------+-------------+-----------------+ <-- min LBFGS
 |    Step    |   lambda    |   F.delta'  |    enthalpy     | <-- min LBFGS
 +------------+-------------+-------------+-----------------+ <-- min LBFGS
 |  previous  |    0.000000 |    0.549001 |  -118682.560693 | <-- min LBFGS
 | trial step |    1.000000 |    0.530541 |  -118682.566861 | <-- min LBFGS
 +------------+-------------+-------------+-----------------+ <-- min LBFGS
  
 LBFGS: finished iteration     1 with enthalpy= -1.18682567E+005 eV
  
 +-----------+-----------------+-----------------+------------+-----+ <-- LBFGS
 | Parameter |      value      |    tolerance    |    units   | OK? | <-- LBFGS
 +-----------+-----------------+-----------------+------------+-----+ <-- LBFGS
 |  dE/ion   |   7.614878E-005 |   2.000000E-005 |         eV | No  | <-- LBFGS
 |  |F|max   |   4.804347E-001 |   5.000000E-002 |       eV/A | No  | <-- LBFGS
 |  |dR|max  |   1.033427E-003 |   1.000000E-003 |          A | No  | <-- LBFGS
 |   Smax    |   2.132890E-001 |   1.000000E-001 |        GPa | No  | <-- LBFGS
 +-----------+-----------------+-----------------+------------+-----+ <-- LBFGS
  

================================================================================
 Starting LBFGS iteration          2 ...
================================================================================
  
 +------------+-------------+-------------+-----------------+ <-- min LBFGS
 |    Step    |   lambda    |   F.delta'  |    enthalpy     | <-- min LBFGS
 +------------+-------------+-------------+-----------------+ <-- min LBFGS
 |  previous  |    0.000000 |    0.549521 |  -118682.566861 | <-- min LBFGS
 +------------+-------------+-------------+-----------------+ <-- min LBFGS
  

--------------------------------------------------------------------------------
 LBFGS: starting iteration         2 with trial guess (lambda=  1.000000)
--------------------------------------------------------------------------------

                           -------------------------------
                                      Unit Cell
                           -------------------------------
        Real Lattice(A)              Reciprocal Lattice(1/A)
     6.8406312   -11.8483210     0.0000003        0.459254790  -0.265150872   0.000000013
     6.8406312    11.8483210    -0.0000001        0.459254790   0.265150872   0.000000003
    -0.0000001     0.0000002     8.4611788       -0.000000013   0.000000014   0.742589828

                       Lattice parameters(A)       Cell Angles
                    a =     13.681263          alpha =   90.000000
                    b =     13.681263          beta  =   90.000000
                    c =      8.461179          gamma =  120.000001

                Current cell volume =          1371.556992 A**3
                            density =             2.711784 amu/A**3
                                    =             4.503024 g/cm^3

                           -------------------------------
                                     Cell Contents
                           -------------------------------

            xxxxxxxxxxxxxxxxxxxxxxxxxxxxxxxxxxxxxxxxxxxxxxxxxxxxxxxxxxxxxxxxx
            x  Element         Atom        Fractional coordinates of atoms  x
            x                 Number           u          v          w      x
            x---------------------------------------------------------------x
            x  Al                1        -0.000275  -0.001555   0.330599   x
            x  Al                2         0.562130   0.118319   0.793743   x
            x  Al                3         0.551823   0.443575   0.652692   x
            x  Al                4         0.560970   0.441714   0.973654   x
            x  Al                5         0.336378   0.664857  -0.004485   x
            x  Al                6         0.558224   0.777699   0.155958   x
            x  Al                7         0.450887   0.901585   0.838380   x
            x  Al                8         0.779417   0.889103   0.831802   x
            x  Ti                1        -0.002209  -0.002612  -0.004118   x
            x  Ti                2         0.109327   0.220422   0.163261   x
            x  Ti                3         0.222065   0.110383   0.162252   x
            x  Ti                4         0.107436   0.220449   0.497667   x
            x  Ti                5         0.221776   0.110459   0.496164   x
            x  Ti                6        -0.001961  -0.002620   0.665786   x
            x  Ti                7         0.109099   0.218335   0.830717   x
            x  Ti                8         0.224403   0.111381   0.829314   x
            x  Ti                9         0.003359   0.336966  -0.002037   x
            x  Ti               10         0.115523   0.556363   0.162824   x
            x  Ti               11         0.224632   0.444527   0.165133   x
            x  Ti               12         0.002920   0.334942   0.332559   x
            x  Ti               13         0.112834   0.557193   0.495826   x
            x  Ti               14         0.223103   0.446598   0.500468   x
            x  Ti               15        -0.000511   0.335456   0.666176   x
            x  Ti               16         0.108911   0.555799   0.829113   x
            x  Ti               17         0.221698   0.444112   0.832319   x
            x  Ti               18         0.000904   0.665986  -0.003292   x
            x  Ti               19         0.113050   0.890010   0.162103   x
            x  Ti               20         0.217173   0.774724   0.163934   x
            x  Ti               21        -0.005714   0.663967   0.328754   x
            x  Ti               22         0.113308   0.888928   0.494622   x
            x  Ti               23         0.220991   0.776152   0.492929   x
            x  Ti               24        -0.004595   0.664490   0.662355   x
            x  Ti               25         0.109435   0.889040   0.828011   x
            x  Ti               26         0.224462   0.779793   0.827766   x
            x  Ti               27         0.334569   0.000459  -0.006850   x
            x  Ti               28         0.450813   0.234835   0.159709   x
            x  Ti               29         0.556654   0.110372   0.141594   x
            x  Ti               30         0.336667   0.004926   0.327047   x
            x  Ti               31         0.452271   0.237104   0.488691   x
            x  Ti               32         0.334638   0.002116   0.658707   x
            x  Ti               33         0.450824   0.233406   0.825483   x
            x  Ti               34         0.325877   0.330205  -0.000585   x
            x  Ti               35         0.451628   0.548427   0.154161   x
            x  Ti               36         0.558985   0.448070   0.308305   x
            x  Ti               37         0.320301   0.326331   0.329059   x
            x  Ti               38         0.449573   0.545675   0.489855   x
            x  Ti               39         0.321063   0.327485   0.658432   x
            x  Ti               40         0.450066   0.548722   0.821482   x
            x  Ti               41         0.439312   0.886072   0.165225   x
            x  Ti               42         0.335979   0.666480   0.330815   x
            x  Ti               43         0.446540   0.896674   0.507787   x
            x  Ti               44         0.552288   0.774618   0.482313   x
            x  Ti               45         0.337291   0.669209   0.661335   x
            x  Ti               46         0.554896   0.777979   0.829335   x
            x  Ti               47         0.667250  -0.003034  -0.004993   x
            x  Ti               48         0.779980   0.221315   0.168709   x
            x  Ti               49         0.888607   0.112532   0.165829   x
            x  Ti               50         0.662428  -0.004886   0.329989   x
            x  Ti               51         0.769514   0.217835   0.501440   x
            x  Ti               52         0.886926   0.114921   0.495107   x
            x  Ti               53         0.667280  -0.005043   0.662941   x
            x  Ti               54         0.782859   0.225407   0.838776   x
            x  Ti               55         0.889303   0.112020   0.829776   x
            x  Ti               56         0.769028   0.543946   0.133013   x
            x  Ti               57         0.893110   0.443485   0.165140   x
            x  Ti               58         0.672331   0.326478   0.320476   x
            x  Ti               59         0.761794   0.547366   0.486086   x
            x  Ti               60         0.888868   0.444257   0.500880   x
            x  Ti               61         0.670573   0.333961   0.663818   x
            x  Ti               62         0.877383   0.448753   0.837186   x
            x  Ti               63         0.671567   0.674711  -0.005388   x
            x  Ti               64         0.782659   0.892762   0.161505   x
            x  Ti               65         0.888589   0.774579   0.169682   x
            x  Ti               66         0.676283   0.683247   0.325761   x
            x  Ti               67         0.780765   0.892237   0.504530   x
            x  Ti               68         0.890132   0.775351   0.500225   x
            x  Ti               69         0.671050   0.676695   0.657712   x
            x  Ti               70         0.885290   0.769720   0.835282   x
            x  V                 1         0.552491   0.117915   0.474232   x
            x  V                 2         0.663552   0.315479  -0.004778   x
            x  V                 3         0.759179   0.552291   0.802214   x
            xxxxxxxxxxxxxxxxxxxxxxxxxxxxxxxxxxxxxxxxxxxxxxxxxxxxxxxxxxxxxxxxx


------------------------------------------------------------------------ <-- SCF
SCF loop      Energy           Fermi           Energy gain       Timer   <-- SCF
                               energy          per atom          (sec)   <-- SCF
------------------------------------------------------------------------ <-- SCF
Initial  -1.18682437E+005  0.00000000E+000                     10164.66  <-- SCF
      1  -1.18682600E+005  8.48350131E+000   2.01459302E-003   10302.78  <-- SCF
      2  -1.18682605E+005  8.48346303E+000   6.08661832E-005   10509.94  <-- SCF
      3  -1.18682835E+005  8.47081513E+000   2.82995939E-003   10695.57  <-- SCF
      4  -1.18682578E+005  8.47815123E+000  -3.17402019E-003   10873.29  <-- SCF
      5  -1.18682591E+005  8.47461741E+000   1.60928237E-004   11071.52  <-- SCF
      6  -1.18682575E+005  8.47916887E+000  -1.93552063E-004   11259.22  <-- SCF
      7  -1.18682573E+005  8.47903077E+000  -2.33154277E-005   11446.92  <-- SCF
      8  -1.18682573E+005  8.47872557E+000  -1.38940661E-006   11638.02  <-- SCF
      9  -1.18682573E+005  8.47836397E+000  -2.70057950E-006   11818.32  <-- SCF
     10  -1.18682573E+005  8.47840307E+000  -8.21061160E-008   12002.93  <-- SCF
     11  -1.18682573E+005  8.47837610E+000   1.10714289E-007   12159.88  <-- SCF
     12  -1.18682573E+005  8.47841743E+000  -4.56957142E-007   12320.94  <-- SCF
     13  -1.18682573E+005  8.47839466E+000   1.40617945E-008   12472.65  <-- SCF
     14  -1.18682573E+005  8.47836975E+000  -2.09217429E-008   12594.14  <-- SCF
     15  -1.18682573E+005  8.47838034E+000  -1.15615736E-009   12699.28  <-- SCF
     16  -1.18682573E+005  8.47838825E+000  -2.58485499E-010   12804.04  <-- SCF
------------------------------------------------------------------------ <-- SCF
 
Final energy, E             =  -118682.4615459     eV
Final free energy (E-TS)    =  -118682.5726501     eV
(energies not corrected for finite basis set)
 
NB est. 0K energy (E-0.5TS)      =  -118682.5170980     eV
 

 ************************************** Forces **************************************
 *                                                                                  *
 *                           Cartesian components (eV/A)                            *
 * -------------------------------------------------------------------------------- *
 *                         x                    y                    z              *
 *                                                                                  *
 * Al              1      0.03526              0.05021              0.02621         *
 * Al              2     -0.28315             -0.00775              0.06733         *
 * Al              3      0.14192             -0.00127             -0.02792         *
 * Al              4      0.04152              0.08108             -0.03045         *
 * Al              5     -0.06236              0.02180             -0.05791         *
 * Al              6     -0.12149              0.10255             -0.01985         *
 * Al              7     -0.15291             -0.19224              0.19098         *
 * Al              8     -0.01441              0.07806              0.06073         *
 * Ti              1      0.06593             -0.08882              0.10129         *
 * Ti              2     -0.17994              0.06723              0.04062         *
 * Ti              3      0.06628             -0.07935             -0.01584         *
 * Ti              4     -0.15978              0.04845             -0.06052         *
 * Ti              5     -0.01686              0.00726             -0.07545         *
 * Ti              6      0.06843             -0.01430             -0.10540         *
 * Ti              7     -0.04647              0.13408              0.01291         *
 * Ti              8      0.10478             -0.04574              0.02056         *
 * Ti              9      0.03540             -0.05627             -0.07386         *
 * Ti             10      0.00269              0.04741              0.02695         *
 * Ti             11      0.12095             -0.08876             -0.04715         *
 * Ti             12     -0.08775              0.02165             -0.00444         *
 * Ti             13     -0.03086              0.03746             -0.00372         *
 * Ti             14      0.07607             -0.02213             -0.07546         *
 * Ti             15     -0.00664             -0.04419              0.08276         *
[...]
              Al 7 -- Ti 41                  0.31        2.76340
              Al 6 -- Ti 46                  0.31        2.76684
             Ti 36 -- Ti 58                  0.20        2.77205
             Ti 28 -- Ti 31                  0.19        2.77321
              Al 8 -- Ti 67                  0.26        2.77579
              Al 4 -- V 3                    0.29        2.77626
             Ti 57 -- Ti 62                  0.09        2.77899
              Al 4 -- Ti 33                  0.27        2.78036
             Ti 20 -- Ti 23                  0.11        2.78205
              Al 3 -- V 3                    0.25        2.78314
             Ti 48 -- Ti 54                  0.11        2.78427
             Ti 49 -- Ti 52                  0.02        2.78506
             Ti 36 -- Ti 66                  0.21        2.78702
              Al 2 -- Ti 61                  0.25        2.79015
              Al 8 -- Ti 64                  0.30        2.79037
             Ti 35 -- Ti 36                  0.17        2.79198
              Al 3 -- Ti 38                  0.26        2.79207
             Ti 34 -- Ti 37                  0.33        2.79227
             Ti 65 -- Ti 68                  0.08        2.79295
              Al 4 -- Ti 34                  0.32        2.79467
             Ti 63 -- Ti 66                  0.28        2.80172
             Ti 9  -- Ti 15                  0.42        2.80207
             Ti 37 -- Ti 39                  0.31        2.80312
             Ti 1  -- Ti 6                   0.39        2.80343
             Ti 58 -- V 1                    0.16        2.80688
             Ti 42 -- Ti 45                  0.38        2.80739
              Al 7 -- Ti 43                  0.25        2.80865
             Ti 38 -- Ti 40                  0.15        2.80874
             Ti 14 -- Ti 17                  0.11        2.80941
             Ti 19 -- Ti 22                  0.07        2.81043
             Ti 47 -- Ti 53                  0.32        2.81190
             Ti 29 -- V 1                    0.16        2.81379
             Ti 56 -- V 3                    0.21        2.81439
             Ti 18 -- Ti 24                  0.40        2.81489
             Ti 30 -- Ti 32                  0.33        2.81506
             Ti 2  -- Ti 7                   0.10        2.81653
             Ti 3  -- Ti 8                   0.07        2.81702
             Ti 69 -- V 3                    0.15        2.81782
             Ti 61 -- V 2                    0.33        2.81787
             Ti 36 -- Ti 37                  0.21        2.81796
             Ti 10 -- Ti 13                  0.08        2.81800
             Ti 48 -- Ti 51                  0.07        2.81827
             Ti 66 -- Ti 69                  0.31        2.81855
             Ti 27 -- Ti 30                  0.39        2.81863
             Ti 11 -- Ti 17                  0.06        2.81885
             Ti 18 -- Ti 21                  0.35        2.81951
             Ti 28 -- Ti 36                  0.15        2.82004
             Ti 13 -- Ti 16                  0.07        2.82243
             Ti 22 -- Ti 25                  0.07        2.82259
             Ti 4  -- Ti 7                   0.10        2.82260
             Ti 3  -- Ti 5                   0.06        2.82367
              Al 5 -- Ti 45                  0.44        2.82413
             Ti 5  -- Ti 8                   0.07        2.82439
             Ti 50 -- Ti 53                  0.38        2.82484
              Al 4 -- Ti 56                  0.20        2.82590
             Ti 2  -- Ti 4                   0.06        2.82600
             Ti 10 -- Ti 16                  0.06        2.82609
              Al 3 -- Ti 31                  0.24        2.82762
             Ti 35 -- Ti 38                  0.24        2.82768
             Ti 54 -- V 2                    0.20        2.82791
             Ti 12 -- Ti 15                  0.38        2.82810
             Ti 35 -- Ti 40                  0.17        2.82867
             Ti 47 -- Ti 50                  0.36        2.82943
              Al 1 -- Ti 1                   0.35        2.83005
              Al 1 -- Ti 6                   0.35        2.83129
             Ti 27 -- Ti 32                  0.34        2.83183
             Ti 21 -- Ti 24                  0.37        2.83186
             Ti 28 -- Ti 33                  0.19        2.83207
             Ti 19 -- Ti 25                  0.07        2.83226
              Al 5 -- Ti 42                  0.36        2.83414
             Ti 65 -- Ti 70                  0.12        2.83435
             Ti 9  -- Ti 12                  0.35        2.83542
             Ti 36 -- Ti 59                  0.21        2.83627
             Ti 11 -- Ti 14                  0.10        2.83728
             Ti 52 -- Ti 55                  0.05        2.83853
             Ti 68 -- Ti 70                  0.09        2.83892
             Ti 23 -- Ti 26                  0.13        2.83943
              Al 3 -- Ti 40                  0.26        2.83952
             Ti 49 -- Ti 55                  0.06        2.84194
             Ti 30 -- V 1                    0.20        2.84327
             Ti 48 -- Ti 58                  0.11        2.84347
             Ti 20 -- Ti 26                  0.09        2.84496
             Ti 57 -- Ti 60                  0.12        2.84680
             Ti 63 -- Ti 69                  0.28        2.84752
             Ti 64 -- Ti 66                  0.16        2.84806
             Ti 65 -- Ti 66                  0.15        2.84873
              Al 4 -- Ti 36                  0.21        2.85178
             Ti 60 -- Ti 62                  0.09        2.85814
             Ti 31 -- Ti 33                  0.18        2.86001
              Al 3 -- Ti 59                  0.19        2.86418
             Ti 61 -- Ti 62                  0.03        2.86709
             Ti 61 -- V 3                    0.16        2.86783
             Ti 51 -- Ti 54                  0.13        2.86905
             Ti 42 -- Ti 44                  0.21        2.87010
             Ti 34 -- Ti 39                  0.34        2.87043
             Ti 2  -- Ti 37                  0.16        2.87211
             Ti 67 -- Ti 69                  0.17        2.87598
              Al 7 -- Ti 27                  0.24        2.87800
             Ti 32 -- Ti 43                  0.13        2.87939
             Ti 63 -- Ti 70                  0.08        2.87953
             Ti 62 -- V 2                    0.08        2.88188
              Al 4 -- Ti 40                  0.24        2.88487
              Al 7 -- Ti 47                  0.23        2.88588
             Ti 11 -- Ti 37                  0.15        2.88728
             Ti 36 -- Ti 38                  0.18        2.88815
             Ti 4  -- Ti 39                  0.12        2.88847
             Ti 44 -- Ti 66                  0.16        2.88882
             Ti 53 -- Ti 67                  0.16        2.89022
              Al 8 -- Ti 63                  0.24        2.89294
             Ti 28 -- V 2                    0.17        2.89350
             Ti 51 -- Ti 58                  0.11        2.89400
             Ti 21 -- Ti 65                  0.19        2.89823
              Al 3 -- Ti 36                  0.18        2.89838
             Ti 64 -- Ti 67                  0.10        2.89930
              Al 3 -- Ti 33                  0.22        2.90099
             Ti 41 -- Ti 43                  0.08        2.90174
             Ti 48 -- V 2                    0.14        2.90242
             Ti 58 -- Ti 61                  0.29        2.90245
             Ti 18 -- Ti 62                  0.14        2.90325
              Al 6 -- Ti 66                  0.21        2.90652
             Ti 4  -- Ti 37                  0.14        2.90683
             Ti 7  -- Ti 39                  0.15        2.90733
             Ti 14 -- Ti 39                  0.13        2.90810
             Ti 11 -- Ti 34                  0.14        2.90954
              Al 6 -- Ti 63                  0.22        2.90962
             Ti 1  -- Ti 64                  0.14        2.90989
             Ti 51 -- Ti 61                  0.12        2.91113
             Ti 6  -- Ti 67                  0.12        2.91125
             Ti 44 -- Ti 50                  0.15        2.91146
              Al 2 -- V 2                    0.20        2.91155
             Ti 66 -- Ti 67                  0.13        2.91227
             Ti 36 -- Ti 56                  0.17        2.91239
              Al 2 -- Ti 32                  0.25        2.91323
             Ti 24 -- Ti 68                  0.12        2.91343
             Ti 31 -- Ti 36                  0.15        2.91368
             Ti 34 -- Ti 35                  0.12        2.91648
              Al 4 -- Ti 28                  0.18        2.91737
             Ti 33 -- V 2                    0.15        2.91806
             Ti 27 -- Ti 29                  0.15        2.91959
             Ti 3  -- Ti 37                  0.14        2.92202
              Al 8 -- Ti 69                  0.23        2.92366
             Ti 5  -- Ti 39                  0.11        2.92410
             Ti 2  -- Ti 34                  0.11        2.92519
              Al 2 -- Ti 53                  0.24        2.92562
             Ti 68 -- Ti 69                  0.08        2.92628
             Ti 43 -- Ti 53                  0.11        2.92639
             Ti 46 -- Ti 53                  0.14        2.92676
             Ti 5  -- Ti 37                  0.12        2.92686
             Ti 29 -- Ti 47                  0.15        2.92982
             Ti 24 -- Ti 70                  0.12        2.93016
             Ti 33 -- Ti 61                  0.11        2.93042
             Ti 18 -- Ti 70                  0.11        2.93117
             Ti 57 -- Ti 58                  0.14        2.93298
             Ti 9  -- Ti 57                  0.11        2.93330
             Ti 21 -- Ti 68                  0.16        2.93410
              Al 6 -- Ti 47                  0.23        2.93441
             Ti 44 -- Ti 46                  0.11        2.93577
             Ti 9  -- Ti 54                  0.15        2.93624
             Ti 7  -- Ti 34                  0.13        2.93628
             Ti 66 -- Ti 68                  0.18        2.93735
             Ti 8  -- Ti 39                  0.13        2.93761
             Ti 60 -- Ti 61                  0.14        2.93784
             Ti 9  -- Ti 17                  0.14        2.93896
             Ti 45 -- Ti 46                  0.16        2.93927
              Al 1 -- Ti 64                  0.17        2.94047
              Al 8 -- Ti 1                   0.20        2.94166
             Ti 16 -- Ti 18                  0.14        2.94262
             Ti 17 -- Ti 34                  0.13        2.94275
             Ti 18 -- Ti 20                  0.14        2.94302
             Ti 4  -- Ti 12                  0.14        2.94457
             Ti 35 -- Ti 63                  0.14        2.94491
             Ti 12 -- Ti 52                  0.11        2.94526
             Ti 3  -- Ti 30                  0.16        2.94691
              Al 2 -- Ti 29                  0.23        2.94737
              Al 8 -- Ti 53                  0.18        2.94740
              Al 5 -- Ti 46                  0.21        2.94808
              Al 8 -- Ti 47                  0.19        2.94840
             Ti 41 -- Ti 42                  0.14        2.94841
             Ti 3  -- Ti 34                  0.11        2.94869
             Ti 6  -- Ti 25                  0.11        2.94901
             Ti 37 -- Ti 38                  0.10        2.94958
             Ti 24 -- Ti 60                  0.12        2.95059
             Ti 17 -- Ti 39                  0.10        2.95085
             Ti 56 -- V 2                    0.16        2.95089
             Ti 9  -- Ti 10                  0.12        2.95188
             Ti 63 -- Ti 64                  0.12        2.95196
              Al 5 -- Ti 17                  0.17        2.95217
             Ti 12 -- Ti 57                  0.15        2.95246
             Ti 24 -- Ti 62                  0.13        2.95260
             Ti 15 -- Ti 54                  0.13        2.95290
              Al 8 -- Ti 6                   0.20        2.95378
             Ti 46 -- Ti 47                  0.12        2.95383
              Al 5 -- Al 6                   0.20        2.95440
             Ti 69 -- Ti 70                  0.05        2.95463
             Ti 15 -- Ti 16                  0.13        2.95531
             Ti 59 -- Ti 61                  0.12        2.95635
             Ti 15 -- Ti 60                  0.13        2.95639
             Ti 46 -- Ti 69                  0.12        2.95660
             Ti 28 -- Ti 58                  0.07        2.95717
             Ti 8  -- Ti 27                  0.11        2.95782
             Ti 46 -- Ti 63                  0.14        2.95796
             Ti 56 -- Ti 63                  0.13        2.95864
             Ti 28 -- Ti 34                  0.13        2.95867
             Ti 8  -- Ti 34                  0.11        2.95987
             Ti 14 -- Ti 37                  0.13        2.96003
             Ti 9  -- Ti 16                  0.13        2.96144
             Ti 47 -- Ti 64                  0.10        2.96173
             Ti 31 -- Ti 37                  0.13        2.96209
             Ti 39 -- Ti 40                  0.13        2.96296
             Ti 21 -- Ti 57                  0.15        2.96369
             Ti 5  -- Ti 32                  0.15        2.96392
             Ti 56 -- Ti 59                  0.22        2.96475
             Ti 30 -- Ti 41                  0.11        2.96558
             Ti 26 -- Ti 27                  0.15        2.96581
             Ti 44 -- Ti 45                  0.14        2.96581
             Ti 6  -- Ti 7                   0.10        2.96613
             Ti 40 -- Ti 69                  0.12        2.96802
             Ti 10 -- Ti 42                  0.10        2.96830
             Ti 1  -- Ti 7                   0.10        2.96844
             Ti 58 -- Ti 59                  0.16        2.96864
             Ti 63 -- Ti 65                  0.07        2.96974
             Ti 52 -- Ti 53                  0.12        2.97011
              Al 6 -- Ti 50                  0.16        2.97082
             Ti 14 -- Ti 45                  0.14        2.97106
             Ti 8  -- Ti 32                  0.11        2.97110
             Ti 31 -- Ti 58                  0.07        2.97166
             Ti 1  -- Ti 25                  0.13        2.97181
             Ti 43 -- Ti 50                  0.10        2.97204
              Al 7 -- Ti 53                  0.15        2.97216
             Ti 59 -- Ti 66                  0.13        2.97216
             Ti 22 -- Ti 32                  0.12        2.97226
              Al 5 -- Ti 11                  0.18        2.97323
             Ti 38 -- Ti 39                  0.12        2.97340
             Ti 14 -- Ti 42                  0.16        2.97382
             Ti 5  -- Ti 30                  0.16        2.97386
              Al 5 -- Ti 10                  0.14        2.97388
             Ti 12 -- Ti 13                  0.11        2.97459
             Ti 12 -- Ti 14                  0.11        2.97478
             Ti 18 -- Ti 56                  0.14        2.97490
             Ti 11 -- Ti 42                  0.14        2.97532
             Ti 44 -- Ti 69                  0.09        2.97533
             Ti 12 -- Ti 48                  0.11        2.97559
              Al 1 -- Ti 5                   0.17        2.97565
              Al 1 -- Ti 4                   0.15        2.97628
             Ti 51 -- Ti 53                  0.12        2.97671
             Ti 15 -- Ti 55                  0.15        2.97696
              Al 1 -- Ti 67                  0.15        2.97712
              Al 1 -- Ti 2                   0.14        2.97734
             Ti 29 -- Ti 58                  0.05        2.97830
             Ti 47 -- Ti 55                  0.08        2.97857
             Ti 15 -- Ti 17                  0.10        2.97981
             Ti 2  -- Ti 12                  0.13        2.98035
             Ti 1  -- Ti 19                  0.12        2.98090
             Ti 16 -- Ti 24                  0.14        2.98097
             Ti 63 -- V 3                    0.17        2.98111
             Ti 2  -- Ti 9                   0.10        2.98115
             Ti 31 -- Ti 61                  0.08        2.98129
             Ti 27 -- Ti 41                  0.16        2.98140
             Ti 9  -- Ti 11                  0.14        2.98148
             Ti 21 -- Ti 60                  0.15        2.98247
             Ti 43 -- Ti 45                  0.20        2.98272
              Al 1 -- Ti 22                  0.16        2.98305
              Al 1 -- Ti 65                  0.16        2.98434
             Ti 58 -- Ti 60                  0.15        2.98447
             Ti 6  -- Ti 68                  0.11        2.98466
             Ti 41 -- Ti 50                  0.13        2.98492
             Ti 19 -- Ti 27                  0.11        2.98571
             Ti 53 -- Ti 55                  0.05        2.98688
              Al 1 -- Ti 19                  0.15        2.98689
             Ti 3  -- Ti 27                  0.14        2.98689
             Ti 12 -- Ti 49                  0.13        2.98778
              Al 4 -- Ti 35                  0.17        2.98795
             Ti 20 -- Ti 21                  0.10        2.98920
             Ti 26 -- Ti 45                  0.10        2.98968
             Ti 1  -- Ti 2                   0.12        2.98984
             Ti 15 -- Ti 52                  0.09        2.99002
              Al 5 -- Ti 41                  0.16        2.99158
             Ti 38 -- Ti 69                  0.12        2.99208
             Ti 47 -- Ti 49                  0.09        2.99215
             Ti 4  -- Ti 6                   0.12        2.99229
             Ti 10 -- Ti 12                  0.11        2.99261
             Ti 18 -- Ti 57                  0.13        2.99281
             Ti 13 -- Ti 42                  0.12        2.99287
             Ti 19 -- Ti 30                  0.13        2.99304
             Ti 23 -- Ti 42                  0.12        2.99351
             Ti 11 -- Ti 12                  0.10        2.99430
              Al 7 -- Ti 32                  0.17        2.99518
             Ti 34 -- Ti 40                  0.12        2.99702
             Ti 50 -- Ti 64                  0.13        2.99711
             Ti 13 -- Ti 15                  0.12        2.99762
             Ti 24 -- Ti 25                  0.14        2.99762
              Al 1 -- Ti 3                   0.15        2.99835
             Ti 26 -- Ti 32                  0.14        2.99897
             Ti 6  -- Ti 55                  0.12        2.99905
             Ti 18 -- Ti 25                  0.13        2.99990
             Ti 18 -- Ti 65                  0.12        2.99997
======================================================================


Writing analysis data to sqs_hex_sc3x3x3_Ti70Al8V3_frame0_geomopti.castep_bin

Writing model to sqs_hex_sc3x3x3_Ti70Al8V3_frame0_geomopti.check
 
 A BibTeX formatted list of references used in this run has been written to 
 sqs_hex_sc3x3x3_Ti70Al8V3_frame0_geomopti.bib
 
Initialisation time =     23.83 s
Calculation time    =  99431.35 s
Finalisation time   =     94.51 s
Total time          =  99549.69 s
Peak Memory Use     = 2617936 kB
 
Overall parallel efficiency rating: Satisfactory (60%)
 
Data was distributed by:-
G-vector (16-way); efficiency rating: Satisfactory (62%)
k-point (15-way); efficiency rating: Excellent (95%)
