 +-------------------------------------------------+
 |                                                 |
 |      CCC   AA    SSS  TTTTT  EEEEE  PPPP        |
 |     C     A  A  S       T    E      P   P       |
 |     C     AAAA   SS     T    EEE    PPPP        |
 |     C     A  A     S    T    E      P           |
 |      CCC  A  A  SSS     T    EEEEE  P           |
 |                                                 |
 +-------------------------------------------------+
 |                                                 |
 | Welcome to Academic Release CASTEP version 24.1 |
 | Ab Initio Total Energy Program                  |
 |                                                 |
 | Authors:                                        |
 | M. Segall, M. Probert, C. Pickard, P. Hasnip,   |
 | S. Clark, K. Refson, J. R. Yates,               |
 | A. Bartok-Partay, M. Payne                      |
 |                                                 |
 | Contributors:                                   |
 | P. Lindan, P. Haynes, J. White, V. Milman,      |
 | N. Govind, M. Gibson, P. Tulip, V. Cocula,      |
 | B. Montanari, D. Quigley, M. Glover,            |
 | L. Bernasconi, A. Perlov, M. Plummer,           |
 | E. McNellis, J. Meyer, J. Gale, D. Jochym       |
 | J. Aarons, B. Walker, R. Gillen, D. Jones       |
 | T. Green, I. J. Bush, C. J. Armstrong,          |
 | E. J. Higgins, E. L. Brown, M. S. McFly,        |
 | J. Wilkins, B-C. Shih, P. J. P. Byrne,          |
 | R. J. Maurer, J. C. Womack, J. Dziedzic,        |
 | L. LeBlanc, T. K. Stenczel, J. Kermode,         |
 | S. Sturniolo, B. Shi, B. Durham, M. Evans,      |
 | M. J. Smith, A. Tamerus, Z. Hawkhead,           |
 | V. Ravindran, T. Hollins, S. A. Joyce,          |
 | R. T. Strong, A. M. Reilly                      |
 |                                                 |
 | Copyright (c) 2000 - 2023                       |
 |                                                 |
 |     Distributed under license from Cambridge    |
 |     Enterprise for academic use only.           |
 |                                                 |
 | Please cite                                     |
 |                                                 |
 |     "First principles methods using CASTEP"     |
 |                                                 |
 |         Zeitschrift fuer Kristallographie       |
 |           220(5-6) pp. 567-570 (2005)           |
 |                                                 |
 | S. J. Clark, M. D. Segall, C. J. Pickard,       |
 | P. J. Hasnip, M. J. Probert, K. Refson,         |
 | M. C. Payne                                     |
 |                                                 |
 |       in all publications arising from          |
 |              your use of CASTEP                 |
 |                                                 |
 +-------------------------------------------------+
 |                                                 |
 |              http://www.castep.org              |
 |                                                 |
 +-------------------------------------------------+



 Compiled for linux_x86_64_gfortran10 on Tue, 02 May 2023 15:31:46 +0100
 from code version db08e394c+  default  Mon May 1 16:40:39 2023 +0100
 Compiler: GNU Fortran 10.2.0; Optimisation: fast
 Comms   : Open MPI v4.0.5
 MATHLIBS: openblas (LAPACK version 3.9.0)
 FFT Lib : fftw3 version fftw-3.3.8-sse2-avx-avx2-avx2_128
 Fundamental constants values: CODATA 2018

 Run started: Tue, 14 May 2024 21:14:03 +0100
 +-------------------------------------------------+
 |                                                 |
 |  D D D D    F F F F F  P P P P     T T T T T    |
 |  D       D  F          P       P       T        |
 |  D       D  F F F F    P P P P         T        |
 |  D       D  F          P               T        |
 |  D D D D    F          P               T        |
 |                                                 |
 +-------------------------------------------------+
 |                                                 |
 | Welcome to Castep Linear Response (DFPT)        |
 |                                                 |
 | Copyright (c) 2006 - 2023                       |
 |                                                 |
 | Please cite the following publications in all   |
 | work arising from your use of CASTEP LR.        |
 |                                                 |
 | K. Refson, S. J. Clark and P. R. Tulip          |
 | Variational density functional perturbation     |
 | theory for dielectrics and lattice dynamics     |
 | Phys. Rev. B 73(15), 155114 (2006)              |
 +-------------------------------------------------+

Reading continuation data from model file ti64_hcp_phonon_VV.check

 Atomic calculation performed for Ti: 1s2 2s2 2p6 3s2 3p6 3d2 4s2

 Converged in 79 iterations to an ae energy of -23226.658 eV

   ============================================================                
   | Pseudopotential Report - Date of generation 14-05-2024   |                
   ------------------------------------------------------------                
   | Element: Ti Ionic charge: 12.00 Level of theory: PBE     |                
   | Atomic Solver: Koelling-Harmon                           |                
   |                                                          |                
   |               Reference Electronic Structure             |                
   |         Orbital         Occupation         Energy        |                
   |            3s              2.000           -2.302        |                
   |            3p              6.000           -1.428        |                
   |            4s              2.000           -0.164        |                
   |            3d              2.000           -0.157        |                
   |                                                          |                
   |                 Pseudopotential Definition               |                
   |        Beta     l      e      Rc     scheme   norm       |                
   |          1      0   -2.302   1.793     qc      0         |                
   |          2      0   -0.164   1.793     qc      0         |                
   |          3      0    0.250   1.793     qc      0         |                
   |          4      1   -1.428   1.793     qc      0         |                
   |          5      1    0.250   1.793     qc      0         |                
   |          6      2   -0.157   1.793     qc      0         |                
   |          7      2    0.250   1.793     qc      0         |                
   |         loc     3    0.000   1.793     pn      0         |                
   |                                                          |                
   | Augmentation charge Rinner = 1.263                       |                
   | Partial core correction Rc = 1.263                       |                
   ------------------------------------------------------------                
   | "3|1.8|9|10|11|30U:40:31:32(qc=5.5)"                     |                
   ------------------------------------------------------------                
   |      Author: Chris J. Pickard, Cambridge University      |                
   ============================================================                

 Atomic calculation performed for V: 1s2 2s2 2p6 3s2 3p6 3d3 4s2

 Converged in 81 iterations to an ae energy of -25823.733 eV

   ============================================================                
   | Pseudopotential Report - Date of generation 14-05-2024   |                
   ------------------------------------------------------------                
   | Element: V Ionic charge: 13.00 Level of theory: PBE      |                
   | Atomic Solver: Koelling-Harmon                           |                
   |                                                          |                
   |               Reference Electronic Structure             |                
   |         Orbital         Occupation         Energy        |                
   |            3s              2.000           -2.581        |                
   |            3p              6.000           -1.618        |                
   |            3d              3.000           -0.190        |                
   |            4s              2.000           -0.173        |                
   |                                                          |                
   |                 Pseudopotential Definition               |                
   |        Beta     l      e      Rc     scheme   norm       |                
   |          1      0   -2.581   1.803     qc      0         |                
   |          2      0   -0.173   1.803     qc      0         |                
   |          3      0    0.250   1.803     qc      0         |                
   |          4      1   -1.618   1.803     qc      0         |                
   |          5      1    0.250   1.803     qc      0         |                
   |          6      2   -0.190   1.803     qc      0         |                
   |          7      2    0.250   1.803     qc      0         |                
   |         loc     3    0.000   1.803     pn      0         |                
   |                                                          |                
   | Augmentation charge Rinner = 0.600                       |                
   | Partial core correction Rc = 0.600                       |                
   ------------------------------------------------------------                
   | "3|1.8|1.8|0.6|12|14|16|30U:40:31:32(qc=7)"              |                
   ------------------------------------------------------------                
   |      Author: Chris J. Pickard, Cambridge University      |                
   ============================================================                

 Pseudo atomic calculation performed for Ti 3s2 3p6 3d2 4s2

 Converged in 51 iterations to a total energy of -1587.0236 eV

 Pseudo atomic calculation performed for V 3s2 3p6 3d3 4s2

 Converged in 52 iterations to a total energy of -2065.7874 eV
Initialising basis set for model.
Reinitialising basis set for current geometry.
Continuing from previous run with ground state wavefunction.
Continuing from previous run with ground state density.
 WARNING: phonon fine_frequency data in check file HAS BEEN DISCARDED.
          because PHONON_FINE_KPOINT_LIST changed on continuation.
 WARNING: phonon thermal ADP data in check file HAS BEEN DISCARDED.
 Calculation parallelised over 32 processes.
 Data is distributed by k-point(32-way)

 ************************************ Title ************************************
 

 ***************************** General Parameters ******************************
  
 output verbosity                               : normal  (1)
 continuing from                                : ti64_hcp_phonon_VV.check
 write checkpoint data to                       : ti64_hcp_phonon_VV.check
 type of calculation                            : phonon calculation
 stress calculation                             : on
 density difference calculation                 : off
 electron localisation func (ELF) calculation   : off
 Hirshfeld analysis                             : off
 polarisation (Berry phase) analysis            : off
 molecular orbital projected DOS                : off
 deltaSCF calculation                           : off
 unlimited duration calculation
 timing information                             : on
 memory usage estimate                          : on
 write extra output files                       : on
 write final potential to formatted file        : off
 write final density to formatted file          : off
 write structure in CELL formatted file         : on
 write BibTeX reference list                    : on
 write OTFG pseudopotential files               : on
 write electrostatic potential file             : on
 write bands file                               : on
 checkpoint writing                             : both castep_bin and check files
  
 output         length unit                     : A
 output           mass unit                     : amu
 output           time unit                     : ps
 output         charge unit                     : e
 output           spin unit                     : hbar/2
 output         energy unit                     : eV
 output          force unit                     : eV/A
 output       velocity unit                     : A/ps
 output       pressure unit                     : GPa
 output     inv_length unit                     : 1/A
 output      frequency unit                     : THz
 output force constant unit                     : eV/A**2
 output         volume unit                     : A**3
 output   IR intensity unit                     : (D/A)**2/amu
 output         dipole unit                     : D
 output         efield unit                     : eV/A/e
 output        entropy unit                     : J/mol/K
 output    efield chi2 unit                     : pm/V
  
 wavefunctions paging                           : none
 random number generator seed                   :  151102162
 data distribution                              : k-point only
 optimization strategy                          : maximize speed(+++)

 *********************** Exchange-Correlation Parameters ***********************
  
 using functional                               : Perdew Burke Ernzerhof
 relativistic treatment                         : Koelling-Harmon
 DFT+D: Semi-empirical dispersion correction    : off

 ************************* Pseudopotential Parameters **************************
  
 pseudopotential representation                 : reciprocal space
 <beta|phi> representation                      : reciprocal space
 spin-orbit coupling                            : off

 **************************** Basis Set Parameters *****************************
  
 plane wave basis set cut-off                   :   800.0000   eV
 size of standard grid                          :     2.0000
 size of   fine   grid                          :     4.0000
 size of   fine   gmax                          :    57.9620   1/A
 largest prime factor in FFT                    :          5
 finite basis set correction                    : automatic
 number of sample energies                      :          3
           sample  spacing                      :     5.0000   eV

 **************************** Electronic Parameters ****************************
  
 number of  electrons                           :  98.00    
 net charge of system                           :  0.000    
 treating system as non-spin-polarized
 number of bands                                :         84

 ********************* Electronic Minimization Parameters **********************
  
 Method: Treating system as metallic with density mixing treatment of electrons,
         and number of  SD  steps               :          1
         and number of  CG  steps               :          4
  
 total energy / atom convergence tol.           : 0.1000E-08   eV
 eigen-energy convergence tolerance             : 0.9524E-10   eV
 max force / atom convergence tol.              : ignored
 convergence tolerance window                   :          3   cycles
 max. number of SCF cycles                      :        400
 number of fixed-spin iterations                :         10
 smearing scheme                                : Gaussian
 smearing width                                 : 0.5000E-01   eV
 Fermi energy convergence tolerance             : 0.2721E-13   eV
 periodic dipole correction                     : NONE

 ************************** Density Mixing Parameters **************************
  
 density-mixing scheme                          : Pulay
 max. length of mixing history                  :         20
 charge density mixing amplitude                : 0.8000    
 cut-off energy for mixing                      :  800.0       eV
 charge density mixing g-vector                 :  1.500       1/A

 *********************** Population Analysis Parameters ************************
  
 Population analysis with cutoff                :  3.000       A
 Population analysis output                     : summary and pdos components

 ****************************** Phonon Parameters ******************************
  
 phonon calculation method                      : finite displacement
 finite displacement amplitude                  : 0.1000E-01   A
 fine phonon calculation method                 : interpolation
 non-periodic force constant method             : Weighted cumulant sum
 force constant cutoff scale factor             :     1.0000
 LO/TO splitting term                           : not included
 acoustic phonon sum rule                       : correct D(q) in recip-space
 Born effective charges                         : not calculated
 Raman intensities                              : not calculated
 phonon extra output                            : real-space force constants
 phonon k-points                                : use reduced set
 phonon DOS                                     : not calculated
 no timed backups
 band convergence tolerance                     : 0.1000E-08   eV

 ******************************* Developer Code ********************************
  
 PARALLEL: kpoints=32 : ENDPARALLEL
 no_improve_wvfn

 *******************************************************************************
  

                           -------------------------------
                                      Unit Cell
                           -------------------------------
        Real Lattice(A)                      Reciprocal Lattice(1/A)
     2.8717715    -4.9740541     0.0000000        1.093956345  -0.631595990   0.000000000
     2.8717715     4.9740541     0.0000000        1.093956345   0.631595990   0.000000000
     0.0000000     0.0000000     4.6019090        0.000000000   0.000000000   1.365343232

                       Lattice parameters(A)       Cell Angles
                    a =      5.743543          alpha =   90.000000
                    b =      5.743543          beta  =   90.000000
                    c =      4.601909          gamma =  120.000000

                       Current cell volume =           131.470529       A**3
                                   density =             2.959485   AMU/A**3
                                           =             4.914340     g/cm^3

                           -------------------------------
                                     Cell Contents
                           -------------------------------
                         Total number of ions in cell =    8
                      Total number of species in cell =    2
                        Max number of any one species =    6

            xxxxxxxxxxxxxxxxxxxxxxxxxxxxxxxxxxxxxxxxxxxxxxxxxxxxxxxxxxxx
            x  Element    Atom        Fractional coordinates of atoms  x
            x            Number           u          v          w      x
            x----------------------------------------------------------x
            x  Ti           1         0.171942   0.840408   0.250000   x 
            x  Ti           2         0.328058   0.659592   0.750000   x 
            x  Ti           3         0.659592   0.328058   0.250000   x 
            x  Ti           4         0.840408   0.171942   0.750000   x 
            x  Ti           5         0.669132   0.830868   0.250000   x 
            x  Ti           6         0.830868   0.669132   0.750000   x 
            x  V            1         0.177073   0.322927   0.250000   x 
            x  V            2         0.322927   0.177073   0.750000   x 
            xxxxxxxxxxxxxxxxxxxxxxxxxxxxxxxxxxxxxxxxxxxxxxxxxxxxxxxxxxxx


                         No user defined ionic velocities

                           -------------------------------
                                   Details of Species
                           -------------------------------

                               Mass of species in AMU
                                    Ti   47.8670000
                                    V   50.9415000

                          Electric Quadrupole Moment (Barn)
                                    Ti    0.3020000 Isotope 47
                                    V   -0.0520000 Isotope 51

                          Files used for pseudopotentials:
                                    Ti 3|1.8|9|10|11|30U:40:31:32(qc=5.5)
                                    V 3|1.8|1.8|0.6|12|14|16|30U:40:31:32(qc=7)

                           -------------------------------
                              k-Points For BZ Sampling
                           -------------------------------
                       MP grid size for SCF calculation is 11 11 11
                            with an offset of   0.000  0.000  0.000
                       Number of kpoints used =           216

                           -------------------------------
                               Symmetry and Constraints
                           -------------------------------

                      Maximum deviation from symmetry = 0.127532E-14     ANG

                      Number of symmetry operations   =           8
                      Number of ionic constraints     =           3
                      Point group of crystal =     8: D2h, mmm, 2/m 2/m 2/m
                      Space group of crystal =    63: Cmcm, -C 2c 2

             Set iprint > 1 for details on symmetry rotations/translations

                         Centre of mass is constrained
             Set iprint > 1 for details of linear ionic constraints

                         Number of cell constraints= 3
                         Cell constraints are:  1 1 3 0 0 6

                         External pressure/stress (GPa)
                          0.00000   0.00000   0.00000
                                    0.00000   0.00000
                                              0.00000
 Restarting Phonon calculation:  Dynamical matrices from supercells 1 to       6 recovered from .check file.
 %%%%%%%%%%%%%%%%%%%%%%%%%%%%%%%%%%%%%%%%%%%%%%%%%%%%%%%%%%%%%%%%%%%%%%%%%%%%%%%%%%%%%%%%%%%%%%%%%%%%%%%%%%%%%%%%%%%
            Force Constant matrix
 Ion XYZ  L          part  (eV/A**2)
 Supercell   1 at (0,0,0)        0.000 A                             
   1   1          5.782568         -1.006967          0.000000          0.277388          0.056196         -0.117007
                  0.041403          0.050007          0.000000         -0.035201          0.010016          0.017655
                 -0.302109          1.110206          0.000000         -0.008170         -0.009992         -0.066463
                 -0.237353         -0.644311          0.000000         -0.037840          0.007051          0.079086
   1   2         -1.006967          5.030923          0.000000          0.056196         -0.883097          0.912401
                 -0.066050          0.010946          0.000000         -0.010016          0.046724          0.014489
                 -0.090689         -1.203551          0.000000         -0.017758         -0.069328          0.073665
                  0.488745         -0.345948          0.000000          0.021626         -0.039226          0.098364
   1   3          0.000000          0.000000          5.250125         -0.117007          0.912401         -0.838303
                  0.000000          0.000000         -0.053186         -0.017655          0.014489          0.014555
                  0.000000          0.000000          0.035896         -0.023683          0.043400          0.012290
                  0.000000          0.000000          0.106856          0.145113          0.082043          0.052909
   2   1          0.277388          0.056196         -0.117007          5.782568         -1.006967          0.000000
                  0.161824         -0.113236         -0.092923          0.041403          0.066050          0.000000
                 -0.579794          0.514491          0.804172         -0.531535          0.106813          0.000000
                 -0.473973         -0.458767         -0.566159         -0.322162         -0.100317          0.000000
   2   2          0.056196         -0.883097          0.912401         -1.006967          5.030923          0.000000
                  0.113236          0.128604          0.120549         -0.050007          0.010946          0.000000
                  0.601073         -0.087498         -0.704247          1.412223         -1.353388          0.000000
                 -0.553470          0.401503         -0.204305         -0.954178         -1.135634          0.000000
   2   3         -0.117007          0.912401         -0.838303          0.000000          0.000000          5.250125
                  0.092923          0.120549          0.275128          0.000000          0.000000         -0.053186
                  0.838402         -0.400755         -0.957327          0.000000          0.000000          0.026889
                 -0.440889          0.029313         -1.077598          0.000000          0.000000          0.305374
   3   1          0.041403         -0.066050          0.000000          0.161824          0.113236          0.092923
                  5.782568          1.006967          0.000000          0.277388         -0.056196          0.117007
                 -0.531535         -0.106813          0.000000         -0.579794         -0.514491         -0.804172
                 -0.322162          0.100317          0.000000         -0.473973          0.458767          0.566159
   3   2          0.050007          0.010946          0.000000         -0.113236          0.128604          0.120549
                  1.006967          5.030923          0.000000         -0.056196         -0.883097          0.912401
                 -1.412223         -1.353388          0.000000         -0.601073         -0.087498         -0.704247
                  0.954178         -1.135634          0.000000          0.553470          0.401503         -0.204305
   3   3          0.000000          0.000000         -0.053186         -0.092923          0.120549          0.275128
                  0.000000          0.000000          5.250125          0.117007          0.912401         -0.838303
                  0.000000          0.000000          0.026889         -0.838402         -0.400755         -0.957327
                  0.000000          0.000000          0.305374          0.440889          0.029313         -1.077598
   4   1         -0.035201         -0.010016         -0.017655          0.041403         -0.050007          0.000000
                  0.277388         -0.056196          0.117007          5.782568          1.006967          0.000000
                 -0.008170          0.009992          0.066463         -0.302109         -1.110206          0.000000
                 -0.037840         -0.007051         -0.079086         -0.237353          0.644311          0.000000
   4   2          0.010016          0.046724          0.014489          0.066050          0.010946          0.000000
                 -0.056196         -0.883097          0.912401          1.006967          5.030923          0.000000
                  0.017758         -0.069328          0.073665          0.090689         -1.203551          0.000000
                 -0.021626         -0.039226          0.098364         -0.488745         -0.345948          0.000000
   4   3          0.017655          0.014489          0.014555          0.000000          0.000000         -0.053186
                  0.117007          0.912401         -0.838303          0.000000          0.000000          5.250125
                  0.023683          0.043400          0.012290          0.000000          0.000000          0.035896
                 -0.145113          0.082043          0.052909          0.000000          0.000000          0.106856
   5   1         -0.302109         -0.090689          0.000000         -0.579794          0.601073          0.838402
                 -0.531535         -1.412223          0.000000         -0.008170          0.017758          0.023683
                  4.179076          0.000000          0.000000          0.255674         -0.000000          0.000000
                 -0.701944          0.327158          0.000000          0.208555          0.020130         -0.142751
   5   2          1.110206         -1.203551          0.000000          0.514491         -0.087498         -0.400755
                 -0.106813         -1.353388          0.000000          0.009992         -0.069328          0.043400
                  0.000000          6.706777          0.000000         -0.000000         -0.915880          1.175504
                 -0.675033         -0.208571          0.000000          0.061690          0.153080         -0.165602
   5   3          0.000000          0.000000          0.035896          0.804172         -0.704247         -0.957327
                  0.000000          0.000000          0.026889          0.066463          0.073665          0.012290
                  0.000000          0.000000          6.078737          0.000000          1.175504         -1.185947
                  0.000000          0.000000          0.123397         -0.338075         -0.039979          0.295108
   6   1         -0.008170         -0.017758         -0.023683         -0.531535          1.412223          0.000000
                 -0.579794         -0.601073         -0.838402         -0.302109          0.090689          0.000000
                  0.255674         -0.000000          0.000000          4.179076          0.000000          0.000000
                  0.208555         -0.020130          0.142751         -0.701944         -0.327158          0.000000
   6   2         -0.009992         -0.069328          0.043400          0.106813         -1.353388          0.000000
                 -0.514491         -0.087498         -0.400755         -1.110206         -1.203551          0.000000
                 -0.000000         -0.915880          1.175504          0.000000          6.706777          0.000000
                 -0.061690          0.153080         -0.165602          0.675033         -0.208571          0.000000
   6   3         -0.066463          0.073665          0.012290          0.000000          0.000000          0.026889
                 -0.804172         -0.704247         -0.957327          0.000000          0.000000          0.035896
                  0.000000          1.175504         -1.185947          0.000000          0.000000          6.078737
                  0.338075         -0.039979          0.295108          0.000000          0.000000          0.123397
   7   1         -0.237353          0.488745          0.000000         -0.473973         -0.553470         -0.440889
                 -0.322162          0.954178          0.000000         -0.037840         -0.021626         -0.145113
                 -0.701944         -0.675033          0.000000          0.208555         -0.061690          0.338075
                  3.010630         -0.000000          0.000000          0.478401         -0.000000          0.000000
   7   2         -0.644311         -0.345948          0.000000         -0.458767          0.401503          0.029313
                  0.100317         -1.135634          0.000000         -0.007051         -0.039226          0.082043
                  0.327158         -0.208571          0.000000         -0.020130          0.153080         -0.039979
                 -0.000000          2.687569          0.000000         -0.000000         -0.736828          0.121920
   7   3          0.000000          0.000000          0.106856         -0.566159         -0.204305         -1.077598
                  0.000000          0.000000          0.305374         -0.079086          0.098364          0.052909
                  0.000000          0.000000          0.123397          0.142751         -0.165602          0.295108
                  0.000000          0.000000          3.899838          0.000000          0.121920         -1.462685
   8   1         -0.037840          0.021626          0.145113         -0.322162         -0.954178          0.000000
                 -0.473973          0.553470          0.440889         -0.237353         -0.488745          0.000000
                  0.208555          0.061690         -0.338075         -0.701944          0.675033          0.000000
                  0.478401         -0.000000          0.000000          3.010630         -0.000000          0.000000
   8   2          0.007051         -0.039226          0.082043         -0.100317         -1.135634          0.000000
                  0.458767          0.401503          0.029313          0.644311         -0.345948          0.000000
                  0.020130          0.153080         -0.039979         -0.327158         -0.208571          0.000000
                 -0.000000         -0.736828          0.121920         -0.000000          2.687569          0.000000
   8   3          0.079086          0.098364          0.052909          0.000000          0.000000          0.305374
                  0.566159         -0.204305         -1.077598          0.000000          0.000000          0.106856
                 -0.142751         -0.165602          0.295108          0.000000          0.000000          0.123397
                  0.000000          0.121920         -1.462685          0.000000          0.000000          3.899838

 Supercell   2 at (1,0,0)        5.744 A                             
   1   1         -0.058928          0.128530          0.000000         -0.011843          0.010018          0.043863
                 -1.255131          0.524225          0.000000          0.214854          0.066715         -0.214077
                 -0.531535          0.106813          0.000000         -0.579794          0.514491          0.804172
                 -0.040536          0.133554          0.000000         -0.029772          0.027272          0.111159
   1   2          0.128530         -0.172419          0.000000          0.010018         -0.022130         -0.090840
                 -0.524225          0.035523          0.000000          0.035043          0.147333         -0.129311
                  1.412223         -1.353388          0.000000          0.601073         -0.087498         -0.704247
                  0.070373          0.101217          0.000000          0.032466          0.017747          0.042751
   1   3          0.000000          0.000000          0.027587          0.043863         -0.090840          0.023246
                  0.000000          0.000000         -0.082043         -0.181009         -0.181296          0.225232
                  0.000000          0.000000          0.026889          0.838402         -0.400755         -0.957327
                  0.000000          0.000000         -0.051228          0.184440         -0.010765          0.006422
   2   1         -0.011843          0.010018          0.043863         -0.058928          0.128530          0.000000
                  0.214854         -0.035043          0.181009         -2.068431         -0.450059          0.000000
                 -0.008170         -0.009992         -0.066463         -0.302109          1.110206          0.000000
                 -0.001524         -0.008309         -0.067086         -0.019109         -0.057311          0.000000
   2   2          0.010018         -0.022130         -0.090840          0.128530         -0.172419          0.000000
                 -0.066715          0.147333         -0.181296          0.450059          0.107454          0.000000
                 -0.017758         -0.069328          0.073665         -0.090689         -1.203551          0.000000
                 -0.018048          0.078464          0.035196          0.105273          0.004084          0.000000
   2   3          0.043863         -0.090840          0.023246          0.000000          0.000000          0.027587
                  0.214077         -0.129311          0.225232          0.000000          0.000000          0.073652
                 -0.023683          0.043400          0.012290          0.000000          0.000000          0.035896
                 -0.039827          0.017768         -0.128775          0.000000          0.000000         -0.075430
   3   1         -1.255131         -0.524225          0.000000          0.214854         -0.066715          0.214077
                  0.023291          0.013644          0.000000          0.022659          0.038331          0.081938
                 -0.042924         -0.024228          0.000000          0.034378         -0.021593         -0.036445
                 -0.237353          0.644311          0.000000         -0.037840         -0.007051         -0.079086
   3   2          0.524225          0.035523          0.000000         -0.035043          0.147333         -0.129311
                  0.013644         -0.137515          0.000000          0.038331         -0.174119         -0.171533
                  0.049783         -0.009065          0.000000          0.000283          0.064015         -0.043186
                 -0.488745         -0.345948          0.000000         -0.021626         -0.039226          0.098364
   3   3          0.000000          0.000000         -0.082043          0.181009         -0.181296          0.225232
                  0.000000          0.000000         -0.067995          0.081938         -0.171533          0.108252
                  0.000000          0.000000         -0.084767         -0.005707         -0.018615         -0.148856
                  0.000000          0.000000          0.106856         -0.145113          0.082043          0.052909
   4   1          0.214854          0.035043         -0.181009         -2.068431          0.450059          0.000000
                  0.022659          0.038331          0.081938          0.023291          0.013644          0.000000
                 -0.039070         -0.023469          0.126533         -0.056681          0.025369          0.000000
                 -0.473973          0.458767          0.566159         -0.322162          0.100317          0.000000
   4   2          0.066715          0.147333         -0.181296         -0.450059          0.107454          0.000000
                  0.038331         -0.174119         -0.171533          0.013644         -0.137515          0.000000
                  0.033337         -0.004987          0.002361          0.047382          0.072848          0.000000
                  0.553470          0.401503         -0.204305          0.954178         -1.135634          0.000000
   4   3         -0.214077         -0.129311          0.225232          0.000000          0.000000          0.073652
                  0.081938         -0.171533          0.108252          0.000000          0.000000         -0.067995
                  0.150500          0.006689          0.020985          0.000000          0.000000         -0.045034
                  0.440889          0.029313         -1.077598          0.000000          0.000000          0.305374
   5   1         -0.531535          1.412223          0.000000         -0.008170         -0.017758         -0.023683
                 -0.042924          0.049783          0.000000         -0.039070          0.033337          0.150500
                 -0.096855         -0.017948          0.000000         -0.081049          0.004873          0.026032
                  0.026767         -0.000000          0.000000          0.080405          0.000000          0.000000
   5   2          0.106813         -1.353388          0.000000         -0.009992         -0.069328          0.043400
                 -0.024228         -0.009065          0.000000         -0.023469         -0.004987          0.006689
                 -0.017948         -0.010380          0.000000          0.004873         -0.008088         -0.063709
                 -0.000000          0.128617          0.000000         -0.000000          0.068091          0.006256
   5   3          0.000000          0.000000          0.026889         -0.066463          0.073665          0.012290
                  0.000000          0.000000         -0.084767          0.126533          0.002361          0.020985
                  0.000000          0.000000          0.083268          0.026032         -0.063709          0.035268
                  0.000000          0.000000         -0.066377          0.000000          0.013717         -0.018992
   6   1         -0.579794          0.601073          0.838402         -0.302109         -0.090689          0.000000
                  0.034378          0.000283         -0.005707         -0.056681          0.047382          0.000000
                 -0.081049          0.004873          0.026032         -0.096855         -0.017948          0.000000
                  0.199022         -0.000000          0.000000          0.126449         -0.000000          0.000000
   6   2          0.514491         -0.087498         -0.400755          1.110206         -1.203551          0.000000
                 -0.021593          0.064015         -0.018615          0.025369          0.072848          0.000000
                  0.004873         -0.008088         -0.063709         -0.017948         -0.010380          0.000000
                 -0.000000          0.044377          0.170025         -0.000000          0.038238          0.000000
   6   3          0.804172         -0.704247         -0.957327          0.000000          0.000000          0.035896
                 -0.036445         -0.043186         -0.148856          0.000000          0.000000         -0.045034
                  0.026032         -0.063709          0.035268          0.000000          0.000000          0.083268
                  0.000000          0.200816          0.179086          0.000000          0.000000         -0.016863
   7   1         -0.040536          0.070373          0.000000         -0.001524         -0.018048         -0.039827
                 -0.237353         -0.488745          0.000000         -0.473973          0.553470          0.440889
                  0.026767         -0.000000          0.000000          0.199022         -0.000000          0.000000
                 -0.145273          0.408603          0.000000         -0.098347          0.037669         -0.024213
   7   2          0.133554          0.101217          0.000000         -0.008309          0.078464          0.017768
                  0.644311         -0.345948          0.000000          0.458767          0.401503          0.029313
                 -0.000000          0.128617          0.000000         -0.000000          0.044377          0.200816
                  0.408603         -0.201779          0.000000          0.037669         -0.163406         -0.039271
   7   3          0.000000          0.000000         -0.051228         -0.067086          0.035196         -0.128775
                  0.000000          0.000000          0.106856          0.566159         -0.204305         -1.077598
                  0.000000          0.000000         -0.066377          0.000000          0.170025          0.179086
                  0.000000          0.000000         -0.198892         -0.024213         -0.039271          0.085897
   8   1         -0.029772          0.032466          0.184440         -0.019109          0.105273          0.000000
                 -0.037840         -0.021626         -0.145113         -0.322162          0.954178          0.000000
                  0.080405         -0.000000          0.000000          0.126449         -0.000000          0.000000
                 -0.098347          0.037669         -0.024213         -0.145273          0.408603          0.000000
   8   2          0.027272          0.017747         -0.010765         -0.057311          0.004084          0.000000
                 -0.007051         -0.039226          0.082043          0.100317         -1.135634          0.000000
                  0.000000          0.068091          0.013717         -0.000000          0.038238          0.000000
                  0.037669         -0.163406         -0.039271          0.408603         -0.201779          0.000000
   8   3          0.111159          0.042751          0.006422          0.000000          0.000000         -0.075430
                 -0.079086          0.098364          0.052909          0.000000          0.000000          0.305374
                  0.000000          0.006256         -0.018992          0.000000          0.000000         -0.016863
                 -0.024213         -0.039271          0.085897          0.000000          0.000000         -0.198892

 Supercell   3 at (0,1,0)        5.744 A                             
   1   1          0.023291         -0.013644          0.000000          0.022659         -0.038331         -0.081938
                 -2.068431         -0.450059          0.000000          0.214854         -0.035043          0.181009
                 -0.056681         -0.025369          0.000000         -0.039070          0.023469         -0.126533
                 -0.322162         -0.100317          0.000000         -0.473973         -0.458767         -0.566159
   1   2         -0.013644         -0.137515          0.000000         -0.038331         -0.174119         -0.171533
                  0.450059          0.107454          0.000000         -0.066715          0.147333         -0.181296
                 -0.047382          0.072848          0.000000         -0.033337         -0.004987          0.002361
                 -0.954178         -1.135634          0.000000         -0.553470          0.401503         -0.204305
   1   3          0.000000          0.000000         -0.067995         -0.081938         -0.171533          0.108252
                  0.000000          0.000000          0.073652          0.214077         -0.129311          0.225232
                  0.000000          0.000000         -0.045034         -0.150500          0.006689          0.020985
                  0.000000          0.000000          0.305374         -0.440889          0.029313         -1.077598
   2   1          0.022659         -0.038331         -0.081938          0.023291         -0.013644          0.000000
                  0.214854          0.066715         -0.214077         -1.255131          0.524225          0.000000
                  0.034378          0.021593          0.036445         -0.042924          0.024228          0.000000
                 -0.037840          0.007051          0.079086         -0.237353         -0.644311          0.000000
   2   2         -0.038331         -0.174119         -0.171533         -0.013644         -0.137515          0.000000
                  0.035043          0.147333         -0.129311         -0.524225          0.035523          0.000000
                 -0.000283          0.064015         -0.043186         -0.049783         -0.009065          0.000000
                  0.021626         -0.039226          0.098364          0.488745         -0.345948          0.000000
   2   3         -0.081938         -0.171533          0.108252          0.000000          0.000000         -0.067995
                 -0.181009         -0.181296          0.225232          0.000000          0.000000         -0.082043
                  0.005707         -0.018615         -0.148856          0.000000          0.000000         -0.084767
                  0.145113          0.082043          0.052909          0.000000          0.000000          0.106856
   3   1         -2.068431          0.450059          0.000000          0.214854          0.035043         -0.181009
                 -0.058928         -0.128530          0.000000         -0.011843         -0.010018         -0.043863
                 -0.302109         -1.110206          0.000000         -0.008170          0.009992          0.066463
                 -0.019109          0.057311          0.000000         -0.001524          0.008309          0.067086
   3   2         -0.450059          0.107454          0.000000          0.066715          0.147333         -0.181296
                 -0.128530         -0.172419          0.000000         -0.010018         -0.022130         -0.090840
                  0.090689         -1.203551          0.000000          0.017758         -0.069328          0.073665
                 -0.105273          0.004084          0.000000          0.018048          0.078464          0.035196
   3   3          0.000000          0.000000          0.073652         -0.214077         -0.129311          0.225232
                  0.000000          0.000000          0.027587         -0.043863         -0.090840          0.023246
                  0.000000          0.000000          0.035896          0.023683          0.043400          0.012290
                  0.000000          0.000000         -0.075430          0.039827          0.017768         -0.128775
   4   1          0.214854         -0.066715          0.214077         -1.255131         -0.524225          0.000000
                 -0.011843         -0.010018         -0.043863         -0.058928         -0.128530          0.000000
                 -0.579794         -0.514491         -0.804172         -0.531535         -0.106813          0.000000
                 -0.029772         -0.027272         -0.111159         -0.040536         -0.133554          0.000000
   4   2         -0.035043          0.147333         -0.129311          0.524225          0.035523          0.000000
                 -0.010018         -0.022130         -0.090840         -0.128530         -0.172419          0.000000
                 -0.601073         -0.087498         -0.704247         -1.412223         -1.353388          0.000000
                 -0.032466          0.017747          0.042751         -0.070373          0.101217          0.000000
   4   3          0.181009         -0.181296          0.225232          0.000000          0.000000         -0.082043
                 -0.043863         -0.090840          0.023246          0.000000          0.000000          0.027587
                 -0.838402         -0.400755         -0.957327          0.000000          0.000000          0.026889
                 -0.184440         -0.010765          0.006422          0.000000          0.000000         -0.051228
   5   1         -0.056681         -0.047382          0.000000          0.034378         -0.000283          0.005707
                 -0.302109          0.090689          0.000000         -0.579794         -0.601073         -0.838402
                 -0.096855          0.017948          0.000000         -0.081049         -0.004873         -0.026032
                  0.126449         -0.000000          0.000000          0.199022         -0.000000          0.000000
   5   2         -0.025369          0.072848          0.000000          0.021593          0.064015         -0.018615
                 -1.110206         -1.203551          0.000000         -0.514491         -0.087498         -0.400755
                  0.017948         -0.010380          0.000000         -0.004873         -0.008088         -0.063709
                 -0.000000          0.038238          0.000000         -0.000000          0.044377          0.170025
   5   3          0.000000          0.000000         -0.045034          0.036445         -0.043186         -0.148856
                  0.000000          0.000000          0.035896         -0.804172         -0.704247         -0.957327
                  0.000000          0.000000          0.083268         -0.026032         -0.063709          0.035268
                  0.000000          0.000000         -0.016863          0.000000          0.200816          0.179086
   6   1         -0.039070         -0.033337         -0.150500         -0.042924         -0.049783          0.000000
                 -0.008170          0.017758          0.023683         -0.531535         -1.412223          0.000000
                 -0.081049         -0.004873         -0.026032         -0.096855          0.017948          0.000000
                  0.080405          0.000000          0.000000          0.026767         -0.000000          0.000000
   6   2          0.023469         -0.004987          0.006689          0.024228         -0.009065          0.000000
                  0.009992         -0.069328          0.043400         -0.106813         -1.353388          0.000000
                 -0.004873         -0.008088         -0.063709          0.017948         -0.010380          0.000000
                 -0.000000          0.068091          0.006256         -0.000000          0.128617          0.000000
   6   3         -0.126533          0.002361          0.020985          0.000000          0.000000         -0.084767
                  0.066463          0.073665          0.012290          0.000000          0.000000          0.026889
                 -0.026032         -0.063709          0.035268          0.000000          0.000000          0.083268
                  0.000000          0.013717         -0.018992          0.000000          0.000000         -0.066377
   7   1         -0.322162         -0.954178          0.000000         -0.037840          0.021626          0.145113
                 -0.019109         -0.105273          0.000000         -0.029772         -0.032466         -0.184440
                  0.126449         -0.000000          0.000000          0.080405         -0.000000          0.000000
                 -0.145273         -0.408603          0.000000         -0.098347         -0.037669          0.024213
   7   2         -0.100317         -1.135634          0.000000          0.007051         -0.039226          0.082043
                  0.057311          0.004084          0.000000         -0.027272          0.017747         -0.010765
                 -0.000000          0.038238          0.000000          0.000000          0.068091          0.013717
                 -0.408603         -0.201779          0.000000         -0.037669         -0.163406         -0.039271
   7   3          0.000000          0.000000          0.305374          0.079086          0.098364          0.052909
                  0.000000          0.000000         -0.075430         -0.111159          0.042751          0.006422
                  0.000000          0.000000         -0.016863          0.000000          0.006256         -0.018992
                  0.000000          0.000000         -0.198892          0.024213         -0.039271          0.085897
   8   1         -0.473973         -0.553470         -0.440889         -0.237353          0.488745          0.000000
                 -0.001524          0.018048          0.039827         -0.040536         -0.070373          0.000000
                  0.199022         -0.000000          0.000000          0.026767         -0.000000          0.000000
                 -0.098347         -0.037669          0.024213         -0.145273         -0.408603          0.000000
   8   2         -0.458767          0.401503          0.029313         -0.644311         -0.345948          0.000000
                  0.008309          0.078464          0.017768         -0.133554          0.101217          0.000000
                 -0.000000          0.044377          0.200816         -0.000000          0.128617          0.000000
                 -0.037669         -0.163406         -0.039271         -0.408603         -0.201779          0.000000
   8   3         -0.566159         -0.204305         -1.077598          0.000000          0.000000          0.106856
                  0.067086          0.035196         -0.128775          0.000000          0.000000         -0.051228
                  0.000000          0.170025          0.179086          0.000000          0.000000         -0.066377
                  0.024213         -0.039271          0.085897          0.000000          0.000000         -0.198892

 Supercell   4 at (1,1,0)        5.744 A                             
   1   1         -0.198712         -0.021880          0.000000          0.065607         -0.005311         -0.028816
                  0.041403          0.066050          0.000000          0.161824         -0.113236         -0.092923
                 -0.042924          0.024228          0.000000          0.034378          0.021593          0.036445
                 -0.019109         -0.057311          0.000000         -0.001524         -0.008309         -0.067086
   1   2         -0.021880         -0.131458          0.000000         -0.005311         -0.007718          0.035747
                 -0.050007          0.010946          0.000000          0.113236          0.128604          0.120549
                 -0.049783         -0.009065          0.000000         -0.000283          0.064015         -0.043186
                  0.105273          0.004084          0.000000         -0.018048          0.078464          0.035196
   1   3          0.000000          0.000000         -0.005044         -0.028816          0.035747         -0.140382
                  0.000000          0.000000         -0.053186          0.092923          0.120549          0.275128
                  0.000000          0.000000         -0.084767          0.005707         -0.018615         -0.148856
                  0.000000          0.000000         -0.075430         -0.039827          0.017768         -0.128775
   2   1          0.065607         -0.005311         -0.028816         -0.198712         -0.021880          0.000000
                 -0.035201          0.010016          0.017655          0.041403          0.050007          0.000000
                 -0.039070          0.023469         -0.126533         -0.056681         -0.025369          0.000000
                 -0.029772          0.027272          0.111159         -0.040536          0.133554          0.000000
   2   2         -0.005311         -0.007718          0.035747         -0.021880         -0.131458          0.000000
                 -0.010016          0.046724          0.014489         -0.066050          0.010946          0.000000
                 -0.033337         -0.004987          0.002361         -0.047382          0.072848          0.000000
                  0.032466          0.017747          0.042751          0.070373          0.101217          0.000000
   2   3         -0.028816          0.035747         -0.140382          0.000000          0.000000         -0.005044
                 -0.017655          0.014489          0.014555          0.000000          0.000000         -0.053186
                 -0.150500          0.006689          0.020985          0.000000          0.000000         -0.045034
                  0.184440         -0.010765          0.006422          0.000000          0.000000         -0.051228
   3   1          0.041403         -0.050007          0.000000         -0.035201         -0.010016         -0.017655
                 -0.198712          0.021880          0.000000          0.065607          0.005311          0.028816
                 -0.056681          0.025369          0.000000         -0.039070         -0.023469          0.126533
                 -0.040536         -0.133554          0.000000         -0.029772         -0.027272         -0.111159
   3   2          0.066050          0.010946          0.000000          0.010016          0.046724          0.014489
                  0.021880         -0.131458          0.000000          0.005311         -0.007718          0.035747
                  0.047382          0.072848          0.000000          0.033337         -0.004987          0.002361
                 -0.070373          0.101217          0.000000         -0.032466          0.017747          0.042751
   3   3          0.000000          0.000000         -0.053186          0.017655          0.014489          0.014555
                  0.000000          0.000000         -0.005044          0.028816          0.035747         -0.140382
                  0.000000          0.000000         -0.045034          0.150500          0.006689          0.020985
                  0.000000          0.000000         -0.051228         -0.184440         -0.010765          0.006422
   4   1          0.161824          0.113236          0.092923          0.041403         -0.066050          0.000000
                  0.065607          0.005311          0.028816         -0.198712          0.021880          0.000000
                  0.034378         -0.021593         -0.036445         -0.042924         -0.024228          0.000000
                 -0.001524          0.008309          0.067086         -0.019109          0.057311          0.000000
   4   2         -0.113236          0.128604          0.120549          0.050007          0.010946          0.000000
                  0.005311         -0.007718          0.035747          0.021880         -0.131458          0.000000
                  0.000283          0.064015         -0.043186          0.049783         -0.009065          0.000000
                  0.018048          0.078464          0.035196         -0.105273          0.004084          0.000000
   4   3         -0.092923          0.120549          0.275128          0.000000          0.000000         -0.053186
                  0.028816          0.035747         -0.140382          0.000000          0.000000         -0.005044
                 -0.005707         -0.018615         -0.148856          0.000000          0.000000         -0.084767
                  0.039827          0.017768         -0.128775          0.000000          0.000000         -0.075430
   5   1         -0.042924         -0.049783          0.000000         -0.039070         -0.033337         -0.150500
                 -0.056681          0.047382          0.000000          0.034378          0.000283         -0.005707
                 -0.053294         -0.000000          0.000000          0.086832          0.000000         -0.000000
                 -0.701944         -0.327158          0.000000          0.208555         -0.020130          0.142751
   5   2          0.024228         -0.009065          0.000000          0.023469         -0.004987          0.006689
                  0.025369          0.072848          0.000000         -0.021593          0.064015         -0.018615
                 -0.000000         -0.106984          0.000000          0.000000         -0.012524          0.018733
                  0.675033         -0.208571          0.000000         -0.061690          0.153080         -0.165602
   5   3          0.000000          0.000000         -0.084767         -0.126533          0.002361          0.020985
                  0.000000          0.000000         -0.045034         -0.036445         -0.043186         -0.148856
                  0.000000          0.000000          0.051246         -0.000000          0.018733         -0.111130
                  0.000000          0.000000          0.123397          0.338075         -0.039979          0.295108
   6   1          0.034378         -0.000283          0.005707         -0.056681         -0.047382          0.000000
                 -0.039070          0.033337          0.150500         -0.042924          0.049783          0.000000
                  0.086832          0.000000         -0.000000         -0.053294         -0.000000          0.000000
                  0.208555          0.020130         -0.142751         -0.701944          0.327158          0.000000
   6   2          0.021593          0.064015         -0.018615         -0.025369          0.072848          0.000000
                 -0.023469         -0.004987          0.006689         -0.024228         -0.009065          0.000000
                  0.000000         -0.012524          0.018733         -0.000000         -0.106984          0.000000
                  0.061690          0.153080         -0.165602         -0.675033         -0.208571          0.000000
   6   3          0.036445         -0.043186         -0.148856          0.000000          0.000000         -0.045034
                  0.126533          0.002361          0.020985          0.000000          0.000000         -0.084767
                 -0.000000          0.018733         -0.111130          0.000000          0.000000          0.051246
                 -0.338075         -0.039979          0.295108          0.000000          0.000000          0.123397
   7   1         -0.019109          0.105273          0.000000         -0.029772          0.032466          0.184440
                 -0.040536         -0.070373          0.000000         -0.001524          0.018048          0.039827
                 -0.701944          0.675033          0.000000          0.208555          0.061690         -0.338075
                 -0.705886          0.000000          0.000000          0.099430          0.000000          0.000000
   7   2         -0.057311          0.004084          0.000000          0.027272          0.017747         -0.010765
                 -0.133554          0.101217          0.000000          0.008309          0.078464          0.017768
                 -0.327158         -0.208571          0.000000          0.020130          0.153080         -0.039979
                  0.000000          0.269430          0.000000          0.000000         -0.020523          0.003167
   7   3          0.000000          0.000000         -0.075430          0.111159          0.042751          0.006422
                  0.000000          0.000000         -0.051228          0.067086          0.035196         -0.128775
                  0.000000          0.000000          0.123397         -0.142751         -0.165602          0.295108
                  0.000000          0.000000         -0.194667          0.000000          0.003167         -0.096296
   8   1         -0.001524         -0.018048         -0.039827         -0.040536          0.070373          0.000000
                 -0.029772         -0.032466         -0.184440         -0.019109         -0.105273          0.000000
                  0.208555         -0.061690          0.338075         -0.701944         -0.675033          0.000000
                  0.099430          0.000000          0.000000         -0.705886          0.000000          0.000000
   8   2         -0.008309          0.078464          0.017768          0.133554          0.101217          0.000000
                 -0.027272          0.017747         -0.010765          0.057311          0.004084          0.000000
                 -0.020130          0.153080         -0.039979          0.327158         -0.208571          0.000000
                  0.000000         -0.020523          0.003167          0.000000          0.269430          0.000000
   8   3         -0.067086          0.035196         -0.128775          0.000000          0.000000         -0.051228
                 -0.111159          0.042751          0.006422          0.000000          0.000000         -0.075430
                  0.142751         -0.165602          0.295108          0.000000          0.000000          0.123397
                  0.000000          0.003167         -0.096296          0.000000          0.000000         -0.194667

 Supercell   5 at (0,0,1)        4.602 A                             
   1   1          0.156534         -0.122329          0.000000          0.277388          0.056196          0.117007
                 -0.071601         -0.018694          0.000000         -0.035201          0.010016         -0.017655
                 -0.028228          0.032100          0.000000         -0.008170         -0.009992          0.066463
                 -0.074285         -0.030896          0.000000         -0.037840          0.007051         -0.079086
   1   2         -0.122329          0.246444          0.000000          0.056196         -0.883097         -0.912401
                 -0.002135         -0.016287          0.000000         -0.010016          0.046724         -0.014489
                  0.149962         -0.137501          0.000000         -0.017758         -0.069328         -0.073665
                 -0.113627         -0.121509          0.000000          0.021626         -0.039226         -0.098364
   1   3          0.000000          0.000000         -1.176688          0.117007         -0.912401         -0.838303
                  0.000000          0.000000          0.026618          0.017655         -0.014489          0.014555
                  0.000000          0.000000          0.003728          0.023683         -0.043400          0.012290
                  0.000000          0.000000         -0.007672         -0.145113         -0.082043          0.052909
   2   1          0.277388          0.056196          0.117007          0.156534         -0.122329          0.000000
                  0.161824         -0.113236          0.092923         -0.071601          0.002135          0.000000
                 -0.579794          0.514491         -0.804172         -0.011039          0.095638          0.000000
                 -0.473973         -0.458767          0.566159         -0.132077          0.232142          0.000000
   2   2          0.056196         -0.883097         -0.912401         -0.122329          0.246444          0.000000
                  0.113236          0.128604         -0.120549          0.018694         -0.016287          0.000000
                  0.601073         -0.087498          0.704247         -0.067913         -0.105757          0.000000
                 -0.553470          0.401503          0.204305          0.022343          0.013349          0.000000
   2   3          0.117007         -0.912401         -0.838303          0.000000          0.000000         -1.176688
                 -0.092923         -0.120549          0.275128          0.000000          0.000000          0.026618
                 -0.838402          0.400755         -0.957327          0.000000          0.000000          0.093591
                  0.440889         -0.029313         -1.077598          0.000000          0.000000          0.027463
   3   1         -0.071601         -0.002135          0.000000          0.161824          0.113236         -0.092923
                  0.156534          0.122329          0.000000          0.277388         -0.056196         -0.117007
                 -0.011039         -0.095638          0.000000         -0.579794         -0.514491          0.804172
                 -0.132077         -0.232142          0.000000         -0.473973          0.458767         -0.566159
   3   2         -0.018694         -0.016287          0.000000         -0.113236          0.128604         -0.120549
                  0.122329          0.246444          0.000000         -0.056196         -0.883097         -0.912401
                  0.067913         -0.105757          0.000000         -0.601073         -0.087498          0.704247
                 -0.022343          0.013349          0.000000          0.553470          0.401503          0.204305
   3   3          0.000000          0.000000          0.026618          0.092923         -0.120549          0.275128
                  0.000000          0.000000         -1.176688         -0.117007         -0.912401         -0.838303
                  0.000000          0.000000          0.093591          0.838402          0.400755         -0.957327
                  0.000000          0.000000          0.027463         -0.440889         -0.029313         -1.077598
   4   1         -0.035201         -0.010016          0.017655         -0.071601          0.018694          0.000000
                  0.277388         -0.056196         -0.117007          0.156534          0.122329          0.000000
                 -0.008170          0.009992         -0.066463         -0.028228         -0.032100          0.000000
                 -0.037840         -0.007051          0.079086         -0.074285          0.030896          0.000000
   4   2          0.010016          0.046724         -0.014489          0.002135         -0.016287          0.000000
                 -0.056196         -0.883097         -0.912401          0.122329          0.246444          0.000000
                  0.017758         -0.069328         -0.073665         -0.149962         -0.137501          0.000000
                 -0.021626         -0.039226         -0.098364          0.113627         -0.121509          0.000000
   4   3         -0.017655         -0.014489          0.014555          0.000000          0.000000          0.026618
                 -0.117007         -0.912401         -0.838303          0.000000          0.000000         -1.176688
                 -0.023683         -0.043400          0.012290          0.000000          0.000000          0.003728
                  0.145113         -0.082043          0.052909          0.000000          0.000000         -0.007672
   5   1         -0.028228          0.149962          0.000000         -0.579794          0.601073         -0.838402
                 -0.011039          0.067913          0.000000         -0.008170          0.017758         -0.023683
                  0.459674          0.000000          0.000000          0.255674         -0.000000         -0.000000
                 -0.194963         -0.080074          0.000000          0.208555          0.020130          0.142751
   5   2          0.032100         -0.137501          0.000000          0.514491         -0.087498          0.400755
                 -0.095638         -0.105757          0.000000          0.009992         -0.069328         -0.043400
                  0.000000          0.746807          0.000000         -0.000000         -0.915880         -1.175504
                  0.168400          0.070688          0.000000          0.061690          0.153080          0.165602
   5   3          0.000000          0.000000          0.003728         -0.804172          0.704247         -0.957327
                  0.000000          0.000000          0.093591         -0.066463         -0.073665          0.012290
                  0.000000          0.000000         -1.581838         -0.000000         -1.175504         -1.185947
                  0.000000          0.000000         -0.009249          0.338075          0.039979          0.295108
   6   1         -0.008170         -0.017758          0.023683         -0.011039         -0.067913          0.000000
                 -0.579794         -0.601073          0.838402         -0.028228         -0.149962          0.000000
                  0.255674         -0.000000         -0.000000          0.459674          0.000000          0.000000
                  0.208555         -0.020130         -0.142751         -0.194963          0.080074          0.000000
   6   2         -0.009992         -0.069328         -0.043400          0.095638         -0.105757          0.000000
                 -0.514491         -0.087498          0.400755         -0.032100         -0.137501          0.000000
                 -0.000000         -0.915880         -1.175504          0.000000          0.746807          0.000000
                 -0.061690          0.153080          0.165602         -0.168400          0.070688          0.000000
   6   3          0.066463         -0.073665          0.012290          0.000000          0.000000          0.093591
                  0.804172          0.704247         -0.957327          0.000000          0.000000          0.003728
                 -0.000000         -1.175504         -1.185947          0.000000          0.000000         -1.581838
                 -0.338075          0.039979          0.295108          0.000000          0.000000         -0.009249
   7   1         -0.074285         -0.113627          0.000000         -0.473973         -0.553470          0.440889
                 -0.132077         -0.022343          0.000000         -0.037840         -0.021626          0.145113
                 -0.194963          0.168400          0.000000          0.208555         -0.061690         -0.338075
                  1.794381         -0.000000          0.000000          0.478401         -0.000000         -0.000000
   7   2         -0.030896         -0.121509          0.000000         -0.458767          0.401503         -0.029313
                 -0.232142          0.013349          0.000000         -0.007051         -0.039226         -0.082043
                 -0.080074          0.070688          0.000000         -0.020130          0.153080          0.039979
                 -0.000000          0.953290          0.000000         -0.000000         -0.736828         -0.121920
   7   3          0.000000          0.000000         -0.007672          0.566159          0.204305         -1.077598
                  0.000000          0.000000          0.027463          0.079086         -0.098364          0.052909
                  0.000000          0.000000         -0.009249         -0.142751          0.165602          0.295108
                  0.000000          0.000000          0.201064         -0.000000         -0.121920         -1.462685
   8   1         -0.037840          0.021626         -0.145113         -0.132077          0.022343          0.000000
                 -0.473973          0.553470         -0.440889         -0.074285          0.113627          0.000000
                  0.208555          0.061690          0.338075         -0.194963         -0.168400          0.000000
                  0.478401         -0.000000         -0.000000          1.794381         -0.000000          0.000000
   8   2          0.007051         -0.039226         -0.082043          0.232142          0.013349          0.000000
                  0.458767          0.401503         -0.029313          0.030896         -0.121509          0.000000
                  0.020130          0.153080          0.039979          0.080074          0.070688          0.000000
                 -0.000000         -0.736828         -0.121920         -0.000000          0.953290          0.000000
   8   3         -0.079086         -0.098364          0.052909          0.000000          0.000000          0.027463
                 -0.566159          0.204305         -1.077598          0.000000          0.000000         -0.007672
                  0.142751          0.165602          0.295108          0.000000          0.000000         -0.009249
                 -0.000000         -0.121920         -1.462685          0.000000          0.000000          0.201064

 Supercell   6 at (1,0,1)        7.360 A                             
   1   1          0.009253          0.001364          0.000000         -0.011843          0.010018         -0.043863
                 -0.087959         -0.055080          0.000000          0.214854          0.066715          0.214077
                 -0.011039          0.095638          0.000000         -0.579794          0.514491         -0.804172
                 -0.041033          0.031568          0.000000         -0.029772          0.027272         -0.111159
   1   2          0.001364          0.045608          0.000000          0.010018         -0.022130          0.090840
                  0.055080         -0.042736          0.000000          0.035043          0.147333          0.129311
                 -0.067913         -0.105757          0.000000          0.601073         -0.087498          0.704247
[...]
 + -------------------------------------------------------------------------- +
 +  Acoustic sum rule correction <   0.273766 THz applied                     +
 +     N      Frequency irrep.                                                + 
 +                 (THz)                                                      + 
 +                                                                            +
 +     1      -1.359293   a                                                   + 
 +     2      -0.248391   b                                                   + 
 +     3       0.530457   c                                                   + 
 +     4       0.546723   a                                                   + 
 +     5       2.185212   c                                                   + 
 +     6       2.573528   d                                                   + 
 +     7       2.767790   b                                                   + 
 +     8       3.742395   d                                                   + 
 +     9       4.157144   c                                                   + 
 +    10       4.614388   a                                                   + 
 +    11       4.632001   b                                                   + 
 +    12       4.738081   d                                                   + 
 +    13       4.969125   a                                                   + 
 +    14       5.083792   c                                                   + 
 +    15       5.155482   d                                                   + 
 +    16       5.257963   b                                                   + 
 +    17       5.928600   c                                                   + 
 +    18       6.310896   d                                                   + 
 +    19       6.457856   b                                                   + 
 +    20       6.583879   c                                                   + 
 +    21       6.621938   d                                                   + 
 +    22       7.477760   d                                                   + 
 +    23       7.523056   a                                                   + 
 +    24       7.902950   c                                                   + 
 + .......................................................................... +
 +        Character table from group theory analysis of eigenvectors          +
 +                           Point Group =   8, D2h                           +
 + .......................................................................... +
 +  Rep  Mul |    E   2   m   m                                               +
 +           | ----------------                                               +
 + a       5 |    1   1   1   1                                               +
 + b       5 |    1  -1   1  -1                                               +
 + c       7 |    1  -1  -1   1                                               +
 + d       7 |    1   1  -1  -1                                               +
 + -------------------------------------------------------------------------- +
 +  q-pt= 1220 ( -0.500000 -0.500000  0.350000)     0.0002500000              +
 + -------------------------------------------------------------------------- +
 +  Acoustic sum rule correction <   0.093992 THz applied                     +
 +     N      Frequency irrep.                                                + 
 +                 (THz)                                                      + 
 +                                                                            +
 +     1      -2.357758   a                                                   + 
 +     2      -0.975925   b                                                   + 
 +     3       1.466051   a                                                   + 
 +     4       1.535685   b                                                   + 
 +     5       1.928209   c                                                   + 
 +     6       2.604693   c                                                   + 
 +     7       2.825578   d                                                   + 
 +     8       3.727687   d                                                   + 
 +     9       3.852330   b                                                   + 
 +    10       3.859530   a                                                   + 
 +    11       4.107166   c                                                   + 
 +    12       4.408734   d                                                   + 
 +    13       4.725591   d                                                   + 
 +    14       5.314935   c                                                   + 
 +    15       5.645444   b                                                   + 
 +    16       5.863425   a                                                   + 
 +    17       6.047952   c                                                   + 
 +    18       6.480900   d                                                   + 
 +    19       6.612241   d                                                   + 
 +    20       6.812207   b                                                   + 
 +    21       6.952778   c                                                   + 
 +    22       7.080413   a                                                   + 
 +    23       7.547108   c                                                   + 
 +    24       7.708056   d                                                   + 
 + .......................................................................... +
 +        Character table from group theory analysis of eigenvectors          +
 +                           Point Group =   8, D2h                           +
 + .......................................................................... +
 +  Rep  Mul |    E   2   m   m                                               +
 +           | ----------------                                               +
 + a       5 |    1   1   1   1                                               +
 + b       5 |    1  -1   1  -1                                               +
 + c       7 |    1  -1  -1   1                                               +
 + d       7 |    1   1  -1  -1                                               +
 + -------------------------------------------------------------------------- +
 +  q-pt= 1221 ( -0.500000 -0.500000 -0.500000)     0.0001250000              +
 + -------------------------------------------------------------------------- +
 +  Acoustic sum rule correction <   0.107250 THz applied                     +
 +     N      Frequency irrep.                                                + 
 +                 (THz)                                                      + 
 +                                                                            +
 +     1      -2.431362   a                                                   + 
 +     2      -2.431362   a                                                   + 
 +     3       2.214140   b                                                   + 
 +     4       2.214140   b                                                   + 
 +     5       2.235259   a                                                   + 
 +     6       2.235259   a                                                   + 
 +     7       3.162622   b                                                   + 
 +     8       3.162622   b                                                   + 
 +     9       3.178301   a                                                   + 
 +    10       3.178301   a                                                   + 
 +    11       4.289918   b                                                   + 
 +    12       4.289918   b                                                   + 
 +    13       5.107729   b                                                   + 
 +    14       5.107729   b                                                   + 
 +    15       6.100982   a                                                   + 
 +    16       6.100982   a                                                   + 
 +    17       6.303760   b                                                   + 
 +    18       6.303760   b                                                   + 
 +    19       6.841314   a                                                   + 
 +    20       6.841314   a                                                   + 
 +    21       6.935876   b                                                   + 
 +    22       6.935876   b                                                   + 
 +    23       7.597076   b                                                   + 
 +    24       7.597076   b                                                   + 
 + .......................................................................... +
 +        Character table from group theory analysis of eigenvectors          +
 +                           Point Group =   8, D2h                           +
 + .......................................................................... +
 +  Rep  Mul |    E   I   2   m   2   m   2   m                               +
 +           | --------------------------------                               +
 + a       5 |    2   0   0   0   0   2   0   0                               +
 + b       7 |    2   0   0   0   0  -2   0   0                               +
 ==============================================================================

 ******************** Symmetrised Forces ********************
 *                                                          *
 *               Cartesian components (eV/A)                *
 * -------------------------------------------------------- *
 *                         x            y            z      *
 *                                                          *
 * Ti              1      0.00201     -0.02531     -0.00000 *
 * Ti              2     -0.00201      0.02531      0.00000 *
 * Ti              3     -0.00201     -0.02531     -0.00000 *
 * Ti              4      0.00201      0.02531      0.00000 *
 * Ti              5     -0.00000     -0.01068      0.00000 *
 * Ti              6      0.00000      0.01068     -0.00000 *
 * V               1     -0.00000     -0.03938     -0.00000 *
 * V               2      0.00000      0.03938      0.00000 *
 *                                                          *
 ************************************************************

 *********** Symmetrised Stress Tensor ***********
 *                                               *
 *          Cartesian components (GPa)           *
 * --------------------------------------------- *
 *             x             y             z     *
 *                                               *
 *  x      1.406531     -0.000000      0.000000  *
 *  y     -0.000000     -1.383374      0.000000  *
 *  z      0.000000      0.000000     -0.011871  *
 *                                               *
 *  Pressure:   -0.0038                          *
 *                                               *
 *************************************************

 Pseudo atomic calculation performed for Ti 3s2 3p6 3d2 4s2

 Converged in 51 iterations to a total energy of -1587.0236 eV

 Pseudo atomic calculation performed for V 3s2 3p6 3d3 4s2

 Converged in 52 iterations to a total energy of -2065.7874 eV
Charge spilling parameter for spin component 1 = 0.06%

            Orbital Populations       
     Ion    Atom   Orbital             Charge
  -------------------------------------------
     Ti     1      S                    2.003
     Ti     1      Px                   2.006
     Ti     1      Py                   2.006
     Ti     1      Pz                   2.006
     Ti     1      S                    0.277
     Ti     1      Dzz                  0.585
     Ti     1      Dzy                  0.467
     Ti     1      Dzx                  0.505
     Ti     1      Dxx-yy               0.539
     Ti     1      Dxy                  0.585
     Ti     1      Px                   0.321
     Ti     1      Py                   0.331
     Ti     1      Pz                   0.323
     Ti     2      S                    2.003
     Ti     2      Px                   2.006
     Ti     2      Py                   2.006
     Ti     2      Pz                   2.006
     Ti     2      S                    0.277
     Ti     2      Dzz                  0.585
     Ti     2      Dzy                  0.467
     Ti     2      Dzx                  0.505
     Ti     2      Dxx-yy               0.539
     Ti     2      Dxy                  0.585
     Ti     2      Px                   0.321
     Ti     2      Py                   0.331
     Ti     2      Pz                   0.323
     Ti     3      S                    2.003
     Ti     3      Px                   2.006
     Ti     3      Py                   2.006
     Ti     3      Pz                   2.006
     Ti     3      S                    0.279
     Ti     3      Dzz                  0.591
     Ti     3      Dzy                  0.482
     Ti     3      Dzx                  0.517
     Ti     3      Dxx-yy               0.539
     Ti     3      Dxy                  0.581
     Ti     3      Px                   0.324
     Ti     3      Py                   0.330
     Ti     3      Pz                   0.322
     Ti     4      S                    2.003
     Ti     4      Px                   2.006
     Ti     4      Py                   2.006
     Ti     4      Pz                   2.006
     Ti     4      S                    0.279
     Ti     4      Dzz                  0.591
     Ti     4      Dzy                  0.482
     Ti     4      Dzx                  0.517
     Ti     4      Dxx-yy               0.539
     Ti     4      Dxy                  0.581
     Ti     4      Px                   0.324
     Ti     4      Py                   0.330
     Ti     4      Pz                   0.322
     Ti     5      S                    2.005
     Ti     5      Px                   2.007
     Ti     5      Py                   2.007
     Ti     5      Pz                   2.007
     Ti     5      S                    0.296
     Ti     5      Dzz                  0.618
     Ti     5      Dzy                  0.517
     Ti     5      Dzx                  0.457
     Ti     5      Dxx-yy               0.595
     Ti     5      Dxy                  0.543
     Ti     5      Px                   0.350
     Ti     5      Py                   0.332
     Ti     5      Pz                   0.308
     Ti     6      S                    2.005
     Ti     6      Px                   2.007
     Ti     6      Py                   2.007
     Ti     6      Pz                   2.007
     Ti     6      S                    0.296
     Ti     6      Dzz                  0.618
     Ti     6      Dzy                  0.517
     Ti     6      Dzx                  0.457
     Ti     6      Dxx-yy               0.595
     Ti     6      Dxy                  0.543
     Ti     6      Px                   0.350
     Ti     6      Py                   0.332
     Ti     6      Pz                   0.308
      V     1      S                    2.001
      V     1      Px                   2.003
      V     1      Py                   2.003
      V     1      Pz                   2.003
      V     1      Dzz                  0.841
      V     1      Dzy                  0.725
      V     1      Dzx                  0.601
      V     1      Dxx-yy               0.776
      V     1      Dxy                  0.768
      V     1      S                    0.331
      V     1      Px                   0.315
      V     1      Py                   0.317
      V     1      Pz                   0.338
      V     2      S                    2.001
      V     2      Px                   2.003
      V     2      Py                   2.003
      V     2      Pz                   2.003
      V     2      Dzz                  0.841
      V     2      Dzy                  0.725
      V     2      Dzx                  0.601
      V     2      Dxx-yy               0.776
      V     2      Dxy                  0.768
      V     2      S                    0.331
      V     2      Px                   0.315
      V     2      Py                   0.317
      V     2      Pz                   0.338
  -------------------------------------------
                           Total:      98.000
  -------------------------------------------

     Atomic Populations (Mulliken)
     -----------------------------
Species          Ion     s       p       d       f      Total   Charge (e)
==========================================================================
  Ti              1     2.281   6.992   2.695   0.000  11.968     0.032
  Ti              2     2.281   6.992   2.695   0.000  11.968     0.032
  Ti              3     2.281   6.992   2.695   0.000  11.968     0.032
  Ti              4     2.281   6.992   2.695   0.000  11.968     0.032
  Ti              5     2.300   7.011   2.730   0.000  12.041    -0.041
  Ti              6     2.300   7.011   2.730   0.000  12.041    -0.041
  V               1     2.333   6.980   3.710   0.000  13.023    -0.023
  V               2     2.333   6.980   3.710   0.000  13.023    -0.023
==========================================================================

                 Bond                   Population      Length (A)
======================================================================
               V 1 -- V 2                    0.29        2.72024
              Ti 4 -- V 2                    0.30        2.75675
              Ti 3 -- V 1                    0.30        2.75675
              Ti 1 -- V 1                    0.30        2.75675
              Ti 2 -- V 2                    0.30        2.75675
              Ti 2 -- Ti 4                   0.20        2.80084
              Ti 1 -- Ti 3                   0.20        2.80084
              Ti 5 -- Ti 6                  -0.09        2.80770
              Ti 3 -- Ti 4                   0.04        2.84748
              Ti 1 -- Ti 2                   0.04        2.84748
              Ti 4 -- V 1                    0.09        2.84756
              Ti 3 -- V 2                    0.09        2.84756
              Ti 2 -- V 1                    0.09        2.84756
              Ti 1 -- V 2                    0.09        2.84756
              Ti 4 -- Ti 5                  -0.04        2.85877
              Ti 3 -- Ti 6                  -0.04        2.85877
              Ti 2 -- Ti 5                  -0.04        2.85877
              Ti 1 -- Ti 6                  -0.04        2.85877
              Ti 3 -- Ti 5                   0.34        2.86091
              Ti 2 -- Ti 6                   0.34        2.86091
              Ti 4 -- Ti 6                   0.34        2.86091
              Ti 1 -- Ti 5                   0.34        2.86091
              Ti 6 -- V 2                    0.35        2.87286
              Ti 5 -- V 1                    0.35        2.87286
======================================================================


Writing analysis data to ti64_hcp_phonon_VV.castep_bin

Writing model to ti64_hcp_phonon_VV.check
 
 A BibTeX formatted list of references used in this run has been written to 
 ti64_hcp_phonon_VV.bib
 
Initialisation time =     17.73 s
Calculation time    =      4.84 s
Finalisation time   =      4.88 s
Total time          =     27.46 s
Peak Memory Use     = 1651952 kB
 
Overall parallel efficiency rating: Poor (35%)
 
Data was distributed by:-
k-point (32-way); efficiency rating: Poor (37%)
 
Parallel notes:
1) Calculation only took 22.6 s, so efficiency estimates may be inaccurate.
