 +-------------------------------------------------+
 |                                                 |
 |      CCC   AA    SSS  TTTTT  EEEEE  PPPP        |
 |     C     A  A  S       T    E      P   P       |
 |     C     AAAA   SS     T    EEE    PPPP        |
 |     C     A  A     S    T    E      P           |
 |      CCC  A  A  SSS     T    EEEEE  P           |
 |                                                 |
 +-------------------------------------------------+
 |                                                 |
 | Welcome to Academic Release CASTEP version 24.1 |
 | Ab Initio Total Energy Program                  |
 |                                                 |
 | Authors:                                        |
 | M. Segall, M. Probert, C. Pickard, P. Hasnip,   |
 | S. Clark, K. Refson, J. R. Yates,               |
 | A. Bartok-Partay, M. Payne                      |
 |                                                 |
 | Contributors:                                   |
 | P. Lindan, P. Haynes, J. White, V. Milman,      |
 | N. Govind, M. Gibson, P. Tulip, V. Cocula,      |
 | B. Montanari, D. Quigley, M. Glover,            |
 | L. Bernasconi, A. Perlov, M. Plummer,           |
 | E. McNellis, J. Meyer, J. Gale, D. Jochym       |
 | J. Aarons, B. Walker, R. Gillen, D. Jones       |
 | T. Green, I. J. Bush, C. J. Armstrong,          |
 | E. J. Higgins, E. L. Brown, M. S. McFly,        |
 | J. Wilkins, B-C. Shih, P. J. P. Byrne,          |
 | R. J. Maurer, J. C. Womack, J. Dziedzic,        |
 | L. LeBlanc, T. K. Stenczel, J. Kermode,         |
 | S. Sturniolo, B. Shi, B. Durham, M. Evans,      |
 | M. J. Smith, A. Tamerus, Z. Hawkhead,           |
 | V. Ravindran, T. Hollins, S. A. Joyce,          |
 | R. T. Strong, A. M. Reilly                      |
 |                                                 |
 | Copyright (c) 2000 - 2023                       |
 |                                                 |
 |     Distributed under license from Cambridge    |
 |     Enterprise for academic use only.           |
 |                                                 |
 | Please cite                                     |
 |                                                 |
 |     "First principles methods using CASTEP"     |
 |                                                 |
 |         Zeitschrift fuer Kristallographie       |
 |           220(5-6) pp. 567-570 (2005)           |
 |                                                 |
 | S. J. Clark, M. D. Segall, C. J. Pickard,       |
 | P. J. Hasnip, M. J. Probert, K. Refson,         |
 | M. C. Payne                                     |
 |                                                 |
 |       in all publications arising from          |
 |              your use of CASTEP                 |
 |                                                 |
 +-------------------------------------------------+
 |                                                 |
 |              http://www.castep.org              |
 |                                                 |
 +-------------------------------------------------+



 Compiled for linux_x86_64_gfortran10 on Tue, 02 May 2023 15:31:46 +0100
 from code version db08e394c+  default  Mon May 1 16:40:39 2023 +0100
 Compiler: GNU Fortran 10.2.0; Optimisation: fast
 Comms   : Open MPI v4.0.5
 MATHLIBS: openblas (LAPACK version 3.9.0)
 FFT Lib : fftw3 version fftw-3.3.8-sse2-avx-avx2-avx2_128
 Fundamental constants values: CODATA 2018

 Run started: Thu, 14 Mar 2024 12:12:54 +0000
 +-------------------------------------------------+
 |                                                 |
 |  D D D D    F F F F F  P P P P     T T T T T    |
 |  D       D  F          P       P       T        |
 |  D       D  F F F F    P P P P         T        |
 |  D       D  F          P               T        |
 |  D D D D    F          P               T        |
 |                                                 |
 +-------------------------------------------------+
 |                                                 |
 | Welcome to Castep Linear Response (DFPT)        |
 |                                                 |
 | Copyright (c) 2006 - 2023                       |
 |                                                 |
 | Please cite the following publications in all   |
 | work arising from your use of CASTEP LR.        |
 |                                                 |
 | K. Refson, S. J. Clark and P. R. Tulip          |
 | Variational density functional perturbation     |
 | theory for dielectrics and lattice dynamics     |
 | Phys. Rev. B 73(15), 155114 (2006)              |
 +-------------------------------------------------+


 Atomic calculation performed for Al: 1s2 2s2 2p6 3s2 3p1

 Converged in 54 iterations to an ae energy of -6603.783 eV

   ============================================================                
   | Pseudopotential Report - Date of generation 14-03-2024   |                
   ------------------------------------------------------------                
   | Element: Al Ionic charge:  3.00 Level of theory: PBE     |                
   | Atomic Solver: Koelling-Harmon                           |                
   |                                                          |                
   |               Reference Electronic Structure             |                
   |         Orbital         Occupation         Energy        |                
   |            3s              2.000           -0.285        |                
   |            3p              1.000           -0.100        |                
   |                                                          |                
   |                 Pseudopotential Definition               |                
   |        Beta     l      e      Rc     scheme   norm       |                
   |          1      0   -0.285   2.192     qc      0         |                
   |          2      0    0.250   2.192     qc      0         |                
   |          3      1   -0.100   2.192     qc      0         |                
   |          4      1    0.250   2.192     qc      0         |                
   |          5      2    0.000   2.000     qc      0         |                
   |          6      2    0.250   2.000     qc      0         |                
   |         loc     3    0.000   2.192     pn      0         |                
   |                                                          |                
   | Augmentation charge Rinner = 1.398                       |                
   | Partial core correction Rc = 1.398                       |                
   ------------------------------------------------------------                
   | "3|2.2|2.2|1.4|4|5|5|30:31:32U2U2"                       |                
   ------------------------------------------------------------                
   |      Author: Chris J. Pickard, Cambridge University      |                
   ============================================================                

 Atomic calculation performed for Ti: 1s2 2s2 2p6 3s2 3p6 3d2 4s2

 Converged in 79 iterations to an ae energy of -23226.658 eV

   ============================================================                
   | Pseudopotential Report - Date of generation 14-03-2024   |                
   ------------------------------------------------------------                
   | Element: Ti Ionic charge: 12.00 Level of theory: PBE     |                
   | Atomic Solver: Koelling-Harmon                           |                
   |                                                          |                
   |               Reference Electronic Structure             |                
   |         Orbital         Occupation         Energy        |                
   |            3s              2.000           -2.302        |                
   |            3p              6.000           -1.428        |                
   |            4s              2.000           -0.164        |                
   |            3d              2.000           -0.157        |                
   |                                                          |                
   |                 Pseudopotential Definition               |                
   |        Beta     l      e      Rc     scheme   norm       |                
   |          1      0   -2.302   1.793     qc      0         |                
   |          2      0   -0.164   1.793     qc      0         |                
   |          3      0    0.250   1.793     qc      0         |                
   |          4      1   -1.428   1.793     qc      0         |                
   |          5      1    0.250   1.793     qc      0         |                
   |          6      2   -0.157   1.793     qc      0         |                
   |          7      2    0.250   1.793     qc      0         |                
   |         loc     3    0.000   1.793     pn      0         |                
   |                                                          |                
   | Augmentation charge Rinner = 1.263                       |                
   | Partial core correction Rc = 1.263                       |                
   ------------------------------------------------------------                
   | "3|1.8|9|10|11|30U:40:31:32(qc=5.5)"                     |                
   ------------------------------------------------------------                
   |      Author: Chris J. Pickard, Cambridge University      |                
   ============================================================                

 Atomic calculation performed for V: 1s2 2s2 2p6 3s2 3p6 3d3 4s2

 Converged in 81 iterations to an ae energy of -25823.733 eV

   ============================================================                
   | Pseudopotential Report - Date of generation 14-03-2024   |                
   ------------------------------------------------------------                
   | Element: V Ionic charge: 13.00 Level of theory: PBE      |                
   | Atomic Solver: Koelling-Harmon                           |                
   |                                                          |                
   |               Reference Electronic Structure             |                
   |         Orbital         Occupation         Energy        |                
   |            3s              2.000           -2.581        |                
   |            3p              6.000           -1.618        |                
   |            3d              3.000           -0.190        |                
   |            4s              2.000           -0.173        |                
   |                                                          |                
   |                 Pseudopotential Definition               |                
   |        Beta     l      e      Rc     scheme   norm       |                
   |          1      0   -2.581   1.803     qc      0         |                
   |          2      0   -0.173   1.803     qc      0         |                
   |          3      0    0.250   1.803     qc      0         |                
   |          4      1   -1.618   1.803     qc      0         |                
   |          5      1    0.250   1.803     qc      0         |                
   |          6      2   -0.190   1.803     qc      0         |                
   |          7      2    0.250   1.803     qc      0         |                
   |         loc     3    0.000   1.803     pn      0         |                
   |                                                          |                
   | Augmentation charge Rinner = 0.600                       |                
   | Partial core correction Rc = 0.600                       |                
   ------------------------------------------------------------                
   | "3|1.8|1.8|0.6|12|14|16|30U:40:31:32(qc=7)"              |                
   ------------------------------------------------------------                
   |      Author: Chris J. Pickard, Cambridge University      |                
   ============================================================                

 Pseudo atomic calculation performed for Al 3s2 3p1

 Converged in 22 iterations to a total energy of -107.1308 eV

 Pseudo atomic calculation performed for Ti 3s2 3p6 3d2 4s2

 Converged in 51 iterations to a total energy of -1587.0236 eV

 Pseudo atomic calculation performed for V 3s2 3p6 3d3 4s2

 Converged in 52 iterations to a total energy of -2065.7874 eV
 Calculation parallelised over 384 processes.
 Data is distributed by G-vector(12-way) and k-point(32-way)

 ************************************ Title ************************************
 

 ***************************** General Parameters ******************************
  
 output verbosity                               : normal  (1)
 write checkpoint data to                       : ti64_hcp_phonon.check
 type of calculation                            : phonon calculation
 stress calculation                             : on
 density difference calculation                 : off
 electron localisation func (ELF) calculation   : off
 Hirshfeld analysis                             : off
 polarisation (Berry phase) analysis            : off
 molecular orbital projected DOS                : off
 deltaSCF calculation                           : off
 unlimited duration calculation
 timing information                             : on
 memory usage estimate                          : on
 write extra output files                       : on
 write final potential to formatted file        : off
 write final density to formatted file          : off
 write structure in CELL formatted file         : on
 write BibTeX reference list                    : on
 write OTFG pseudopotential files               : on
 write electrostatic potential file             : on
 write bands file                               : on
 checkpoint writing                             : both castep_bin and check files
  
 output         length unit                     : A
 output           mass unit                     : amu
 output           time unit                     : ps
 output         charge unit                     : e
 output           spin unit                     : hbar/2
 output         energy unit                     : eV
 output          force unit                     : eV/A
 output       velocity unit                     : A/ps
 output       pressure unit                     : GPa
 output     inv_length unit                     : 1/A
 output      frequency unit                     : THz
 output force constant unit                     : eV/A**2
 output         volume unit                     : A**3
 output   IR intensity unit                     : (D/A)**2/amu
 output         dipole unit                     : D
 output         efield unit                     : eV/A/e
 output        entropy unit                     : J/mol/K
 output    efield chi2 unit                     : pm/V
  
 wavefunctions paging                           : none
 random number generator seed                   :  121254587
 data distribution                              : k-point only
 optimization strategy                          : maximize speed(+++)

 *********************** Exchange-Correlation Parameters ***********************
  
 using functional                               : Perdew Burke Ernzerhof
 relativistic treatment                         : Koelling-Harmon
 DFT+D: Semi-empirical dispersion correction    : off

 ************************* Pseudopotential Parameters **************************
  
 pseudopotential representation                 : reciprocal space
 <beta|phi> representation                      : reciprocal space
 spin-orbit coupling                            : off

 **************************** Basis Set Parameters *****************************
  
 plane wave basis set cut-off                   :   800.0000   eV
 size of standard grid                          :     2.0000
 size of   fine   grid                          :     4.0000
 size of   fine   gmax                          :    57.9620   1/A
 largest prime factor in FFT                    :          5
 finite basis set correction                    : automatic
 number of sample energies                      :          3
           sample  spacing                      :     5.0000   eV

 **************************** Electronic Parameters ****************************
  
 number of  electrons                           :  88.00    
 net charge of system                           :  0.000    
 treating system as non-spin-polarized
 number of bands                                :         79

 ********************* Electronic Minimization Parameters **********************
  
 Method: Treating system as metallic with density mixing treatment of electrons,
         and number of  SD  steps               :          1
         and number of  CG  steps               :          4
  
 total energy / atom convergence tol.           : 0.1000E-08   eV
 eigen-energy convergence tolerance             : 0.1013E-09   eV
 max force / atom convergence tol.              : ignored
 convergence tolerance window                   :          3   cycles
 max. number of SCF cycles                      :        400
 number of fixed-spin iterations                :         10
 smearing scheme                                : Gaussian
 smearing width                                 : 0.5000E-01   eV
 Fermi energy convergence tolerance             : 0.2721E-13   eV
 periodic dipole correction                     : NONE

 ************************** Density Mixing Parameters **************************
  
 density-mixing scheme                          : Pulay
 max. length of mixing history                  :         20
 charge density mixing amplitude                : 0.8000    
 cut-off energy for mixing                      :  800.0       eV
 charge density mixing g-vector                 :  1.500       1/A

 *********************** Population Analysis Parameters ************************
  
 Population analysis with cutoff                :  3.000       A
 Population analysis output                     : summary and pdos components

 ****************************** Phonon Parameters ******************************
  
 phonon calculation method                      : finite displacement
 finite displacement amplitude                  : 0.1000E-01   A
 fine phonon calculation method                 : interpolation
 non-periodic force constant method             : Weighted cumulant sum
 force constant cutoff scale factor             :     1.0000
 LO/TO splitting term                           : included
 acoustic phonon sum rule                       : correct D(q) in recip-space
 Born effective charges                         : calculated
 Born charge sum rule                           : explicitly enforced
 Raman intensities                              : not calculated
 phonon extra output                            : real-space force constants
 phonon k-points                                : use reduced set
 phonon DOS                                     : not calculated
 no timed backups
 band convergence tolerance                     : 0.1000E-08   eV

 ******************************* Developer Code ********************************
  
 PARALLEL: kpoints=32 : ENDPARALLEL
 no_improve_wvfn

 *******************************************************************************
  

                           -------------------------------
                                      Unit Cell
                           -------------------------------
        Real Lattice(A)                      Reciprocal Lattice(1/A)
     2.8823340    -4.9923489     0.0000000        1.089947471  -0.629281466   0.000000000
     2.8823340     4.9923489     0.0000000        1.089947471   0.629281466   0.000000000
     0.0000000     0.0000000     4.6100500        0.000000000   0.000000000   1.362932139

                       Lattice parameters(A)       Cell Angles
                    a =      5.764668          alpha =   90.000000
                    b =      5.764668          beta  =   90.000000
                    c =      4.610050          gamma =  120.000000

                       Current cell volume =           132.673708       A**3
                                   density =             2.752053   AMU/A**3
                                           =             4.569891     g/cm^3

                           -------------------------------
                                     Cell Contents
                           -------------------------------
                         Total number of ions in cell =    8
                      Total number of species in cell =    3
                        Max number of any one species =    6

            xxxxxxxxxxxxxxxxxxxxxxxxxxxxxxxxxxxxxxxxxxxxxxxxxxxxxxxxxxxx
            x  Element    Atom        Fractional coordinates of atoms  x
            x            Number           u          v          w      x
            x----------------------------------------------------------x
            x  Al           1         0.165599   0.334401   0.250000   x 
            x  Ti           1         0.168265   0.841691   0.250000   x 
            x  Ti           2         0.335219   0.662634   0.750000   x 
            x  Ti           3         0.658309   0.331735   0.250000   x 
            x  Ti           4         0.837366   0.164781   0.750000   x 
            x  Ti           5         0.669020   0.830980   0.250000   x 
            x  Ti           6         0.834963   0.665036   0.750000   x 
            x  V            1         0.331259   0.168741   0.750000   x 
            xxxxxxxxxxxxxxxxxxxxxxxxxxxxxxxxxxxxxxxxxxxxxxxxxxxxxxxxxxxx


                         No user defined ionic velocities

                           -------------------------------
                                   Details of Species
                           -------------------------------

                               Mass of species in AMU
                                    Al   26.9815400
                                    Ti   47.8670000
                                    V   50.9415000

                          Electric Quadrupole Moment (Barn)
                                    Al    0.1466000 Isotope 27
                                    Ti    0.3020000 Isotope 47
                                    V   -0.0520000 Isotope 51

                          Files used for pseudopotentials:
                                    Al 3|2.2|2.2|1.4|4|5|5|30:31:32U2U2
                                    Ti 3|1.8|9|10|11|30U:40:31:32(qc=5.5)
                                    V 3|1.8|1.8|0.6|12|14|16|30U:40:31:32(qc=7)

                           -------------------------------
                              k-Points For BZ Sampling
                           -------------------------------
                       MP grid size for SCF calculation is 11 11 11
                            with an offset of   0.000  0.000  0.000
                       Number of kpoints used =           216

                           -------------------------------
                               Symmetry and Constraints
                           -------------------------------

                      Maximum deviation from symmetry = 0.576467E-05     ANG

 !-----------------------------------------------------------------------------!
 !                                                                             !
 !                     * * *      W A R N I N G     * * *                      !
 !                                                                             !
 !   Atomic positions are slightly inconsistent with symmetry operations,      !
 !   (although the discrepancy is lower than value of SYMMETRY_TOL).           !
  !   In severe cases this could lead to seriously inaccurate results.         !
 !                                                                             !
 !   It is recommended that symmetries are satisfied to a tolerance of 1e-8au  !
 !   or better. Consider one or more of the following:                         !
 !     - Adjust input so that atomic positions and symmetry are consistent.    !
 !     - Use SNAP_TO_SYMMETRY keyword in the cell file to adjust co-ordinates. !
 !     - Reduce the value of SYMMETRY_TOL in the cell file.                    !
 !     - Remove incorrect symmetry operations from .cell file.                 !
 !                                                                             !
 !-----------------------------------------------------------------------------!


                      Number of symmetry operations   =           4
                      Number of ionic constraints     =           3
                      Point group of crystal =     6: C2v, mm2, 2 mm
                      Space group of crystal =    38: Amm2, A 2 -2

             Set iprint > 1 for details on symmetry rotations/translations

                         Centre of mass is constrained
             Set iprint > 1 for details of linear ionic constraints

                         Number of cell constraints= 3
                         Cell constraints are:  1 1 3 0 0 6

                         External pressure/stress (GPa)
                          0.00000   0.00000   0.00000
                                    0.00000   0.00000
                                              0.00000
 
+---------------- MEMORY AND SCRATCH DISK ESTIMATES PER PROCESS --------------+
|                                                     Memory          Disk    |
| Baseline code, static data and system overhead      591.0 MB         0.0 MB |
| BLAS internal memory storage                          0.0 MB         0.0 MB |
| Model and support data                              667.0 MB         0.0 MB |
| Electronic energy minimisation requirements          33.7 MB         0.0 MB |
| Force calculation requirements                       13.5 MB         0.0 MB |
| Stress calculation requirements                      14.8 MB         0.0 MB |
|                                               ----------------------------- |
| Approx. total storage required per process         1291.8 MB         0.0 MB |
|                                                                             |
| Requirements will fluctuate during execution and may exceed these estimates |
+-----------------------------------------------------------------------------+
Calculating finite basis set correction with  3 cut-off energies.
Calculating total energy with cut-off of  790.000 eV.
------------------------------------------------------------------------ <-- SCF
SCF loop      Energy           Fermi           Energy gain       Timer   <-- SCF
                               energy          per atom          (sec)   <-- SCF
------------------------------------------------------------------------ <-- SCF
Initial  -1.05672697E+004  0.00000000E+000                        21.99  <-- SCF
      1  -1.14145039E+004  1.11163155E+001   1.05904267E+002      24.12  <-- SCF
      2  -1.17339903E+004  9.41313400E+000   3.99358097E+001      25.70  <-- SCF
      3  -1.17498828E+004  9.03633360E+000   1.98656125E+000      27.24  <-- SCF
      4  -1.17499264E+004  8.23059214E+000   5.44007645E-003      29.86  <-- SCF
      5  -1.17508991E+004  8.30152298E+000   1.21591838E-001      32.49  <-- SCF
      6  -1.17489999E+004  8.60921457E+000  -2.37394409E-001      35.12  <-- SCF
      7  -1.17487858E+004  8.63319874E+000  -2.67636722E-002      37.75  <-- SCF
      8  -1.17487741E+004  8.57984514E+000  -1.46460149E-003      40.41  <-- SCF
      9  -1.17487510E+004  8.57917562E+000  -2.88974075E-003      42.96  <-- SCF
     10  -1.17487499E+004  8.57297037E+000  -1.31148725E-004      45.69  <-- SCF
     11  -1.17487497E+004  8.57268272E+000  -2.51190832E-005      48.29  <-- SCF
     12  -1.17487497E+004  8.57196734E+000  -2.30107873E-006      50.95  <-- SCF
     13  -1.17487497E+004  8.57199467E+000  -2.31819085E-008      53.99  <-- SCF
     14  -1.17487497E+004  8.57205955E+000  -2.30877477E-009      56.46  <-- SCF
     15  -1.17487497E+004  8.57206134E+000  -2.53479920E-010      58.52  <-- SCF
     16  -1.17487497E+004  8.57205012E+000  -1.04988251E-010      60.61  <-- SCF
------------------------------------------------------------------------ <-- SCF
 
Final energy, E             =  -11748.73933866     eV
Final free energy (E-TS)    =  -11748.74972050     eV
(energies not corrected for finite basis set)
 
NB est. 0K energy (E-0.5TS)      =  -11748.74452958     eV
 
Calculating total energy with cut-off of  795.000 eV.
------------------------------------------------------------------------ <-- SCF
SCF loop      Energy           Fermi           Energy gain       Timer   <-- SCF
                               energy          per atom          (sec)   <-- SCF
------------------------------------------------------------------------ <-- SCF
Initial  -1.17487393E+004  0.00000000E+000                        63.26  <-- SCF
      1  -1.17487498E+004  8.57204655E+000   1.31328778E-003      64.92  <-- SCF
      2  -1.17487498E+004  8.57204655E+000   2.42053022E-009      68.14  <-- SCF
      3  -1.17487498E+004  8.57202284E+000   6.59082595E-008      70.57  <-- SCF
      4  -1.17487500E+004  8.57256155E+000   1.47569225E-005      73.11  <-- SCF
      5  -1.17487499E+004  8.57188126E+000  -1.39103989E-005      75.65  <-- SCF
      6  -1.17487499E+004  8.57221979E+000   6.90951479E-006      78.22  <-- SCF
      7  -1.17487498E+004  8.57206782E+000  -7.84786594E-006      80.74  <-- SCF
      8  -1.17487498E+004  8.57202755E+000   6.20363393E-007      83.42  <-- SCF
      9  -1.17487498E+004  8.57199180E+000  -5.91935359E-007      85.95  <-- SCF
     10  -1.17487498E+004  8.57207238E+000   1.06815394E-008      88.49  <-- SCF
     11  -1.17487498E+004  8.57207335E+000  -1.01683924E-008      90.84  <-- SCF
     12  -1.17487498E+004  8.57204589E+000  -7.73200764E-010      92.82  <-- SCF
     13  -1.17487498E+004  8.57204629E+000   1.43077911E-011      94.77  <-- SCF
------------------------------------------------------------------------ <-- SCF
 
Final energy, E             =  -11748.73946252     eV
Final free energy (E-TS)    =  -11748.74984437     eV
(energies not corrected for finite basis set)
 
NB est. 0K energy (E-0.5TS)      =  -11748.74465344     eV
 
Calculating total energy with cut-off of  800.000 eV.
------------------------------------------------------------------------ <-- SCF
SCF loop      Energy           Fermi           Energy gain       Timer   <-- SCF
                               energy          per atom          (sec)   <-- SCF
------------------------------------------------------------------------ <-- SCF
Initial  -1.17487395E+004  0.00000000E+000                        97.42  <-- SCF
      1  -1.17487500E+004  8.57204242E+000   1.31248713E-003      98.98  <-- SCF
      2  -1.17487500E+004  8.57204242E+000   2.16608356E-009     101.30  <-- SCF
      3  -1.17487500E+004  8.57204260E+000   4.69604905E-009     103.28  <-- SCF
      4  -1.17487500E+004  8.57213554E+000   3.19311034E-007     105.81  <-- SCF
      5  -1.17487501E+004  8.57134900E+000   1.58132646E-005     108.34  <-- SCF
      6  -1.17487500E+004  8.57202292E+000  -1.48380599E-005     110.83  <-- SCF
      7  -1.17487500E+004  8.57207409E+000  -1.27245857E-006     113.41  <-- SCF
      8  -1.17487500E+004  8.57197016E+000   1.41787503E-007     116.00  <-- SCF
      9  -1.17487500E+004  8.57201899E+000  -1.64927261E-007     118.51  <-- SCF
     10  -1.17487500E+004  8.57206229E+000   4.63205069E-009     120.93  <-- SCF
     11  -1.17487500E+004  8.57207317E+000  -4.32423983E-009     123.17  <-- SCF
     12  -1.17487500E+004  8.57204319E+000  -9.19565599E-010     125.12  <-- SCF
     13  -1.17487500E+004  8.57204251E+000   2.03015954E-011     127.06  <-- SCF
------------------------------------------------------------------------ <-- SCF
 
Final energy, E             =  -11748.73957998     eV
Final free energy (E-TS)    =  -11748.74996183     eV
(energies not corrected for finite basis set)
 
NB est. 0K energy (E-0.5TS)      =  -11748.74477091     eV
 
 For future reference: finite basis dEtot/dlog(Ecut) =      -0.019233eV
 Total energy corrected for finite basis set =  -11748.749963 eV
 ??????????????????????????????????????????????????????????????????????????????? 
     WARNING: Calculation of Born effective charges and IR intensities is not    
              implemented for ultrasoft pseudopotentials.                        
              Parameter CALCULATE_BORN_CHARGES changed to .FALSE.                
 ??????????????????????????????????????????????????????????????????????????????? 
 ??????????????????????????????????????????????????????????????????????????????? 
     WARNING: Calculation of LO/TO splitting is not implemented for ultrasoft    
              pseudopotentials.                                                  
              Parameter PHONON_CALC_LO_TO_SPLITTING changed to .FALSE.           
 ??????????????????????????????????????????????????????????????????????????????? 

 Phonon supercell    1 (of 5)      [  1  0  0;  0  1  0;  0  0  2]:     129.55s
 -------------------------------------------------------------------------------
  Parallel strategy changed for perturbation using 108 k-points
  Data is distributed by G-vector(12-way) and k-point(32-way) and band(1-way)
  +---------------- MEMORY AND SCRATCH DISK ESTIMATES PER PROCESS --------------+
  |                                                     Memory          Disk    |
  | Baseline code, static data and system overhead      591.0 MB         0.0 MB |
  | BLAS internal memory storage                          0.0 MB         0.0 MB |
  | Model and support data                              667.0 MB         0.0 MB |
  | Finite displacement phonon requirements              88.0 MB         0.0 MB |
  |                                               ----------------------------- |
  | Approx. total storage required per process         1346.0 MB         0.0 MB |
  |                                                                             |
  | Requirements will fluctuate during execution and may exceed these estimates |
  +-----------------------------------------------------------------------------+
 Perturbation    1 (of   18): Al    1 X at q=( 0.000, 0.000, 0.000):    242.74s
  Parallel strategy changed for perturbation using 183 k-points
  Data is distributed by G-vector(12-way) and k-point(32-way) and band(1-way)
  +---------------- MEMORY AND SCRATCH DISK ESTIMATES PER PROCESS --------------+
  |                                                     Memory          Disk    |
  | Baseline code, static data and system overhead      591.0 MB         0.0 MB |
  | BLAS internal memory storage                          0.0 MB         0.0 MB |
  | Model and support data                              667.0 MB         0.0 MB |
  | Finite displacement phonon requirements             105.4 MB         0.0 MB |
  |                                               ----------------------------- |
  | Approx. total storage required per process         1363.4 MB         0.0 MB |
  |                                                                             |
  | Requirements will fluctuate during execution and may exceed these estimates |
  +-----------------------------------------------------------------------------+
 Perturbation    2 (of   18): Al    1 Y at q=( 0.000, 0.000, 0.000):    437.25s
  Parallel strategy changed for perturbation using 108 k-points
  Data is distributed by G-vector(32-way) and k-point(12-way) and band(1-way)
 Perturbation    3 (of   18): Al    1 Z at q=( 0.000, 0.000, 0.000):    611.73s
  Parallel strategy changed for perturbation using 198 k-points
  Data is distributed by G-vector(12-way) and k-point(32-way) and band(1-way)
  +---------------- MEMORY AND SCRATCH DISK ESTIMATES PER PROCESS --------------+
  |                                                     Memory          Disk    |
  | Baseline code, static data and system overhead      591.0 MB         0.0 MB |
  | BLAS internal memory storage                          0.0 MB         0.0 MB |
  | Model and support data                              667.0 MB         0.0 MB |
  | Finite displacement phonon requirements             114.3 MB         0.0 MB |
  |                                               ----------------------------- |
  | Approx. total storage required per process         1372.3 MB         0.0 MB |
  |                                                                             |
  | Requirements will fluctuate during execution and may exceed these estimates |
  +-----------------------------------------------------------------------------+
 Perturbation    4 (of   18): Ti    1 X at q=( 0.000, 0.000, 0.000):    921.77s
  Parallel strategy changed for perturbation using 183 k-points
  Data is distributed by G-vector(12-way) and k-point(32-way) and band(1-way)
 Perturbation    5 (of   18): Ti    1 Y at q=( 0.000, 0.000, 0.000):   1135.35s
 Perturbation    6 (of   18): Ti    1 Z at q=( 0.000, 0.000, 0.000):   1333.23s
  Parallel strategy changed for perturbation using 363 k-points
  Data is distributed by G-vector(12-way) and k-point(32-way) and band(1-way)
  +---------------- MEMORY AND SCRATCH DISK ESTIMATES PER PROCESS --------------+
  |                                                     Memory          Disk    |
  | Baseline code, static data and system overhead      591.0 MB         0.0 MB |
  | BLAS internal memory storage                          0.0 MB         0.0 MB |
  | Model and support data                              667.0 MB         0.0 MB |
  | Finite displacement phonon requirements             129.7 MB         0.0 MB |
  |                                               ----------------------------- |
  | Approx. total storage required per process         1387.7 MB         0.0 MB |
  |                                                                             |
  | Requirements will fluctuate during execution and may exceed these estimates |
  +-----------------------------------------------------------------------------+
 Perturbation    7 (of   18): Ti    2 X at q=( 0.000, 0.000, 0.000):   1739.93s
  Parallel strategy changed for perturbation using 183 k-points
  Data is distributed by G-vector(12-way) and k-point(32-way) and band(1-way)
 Perturbation    8 (of   18): Ti    2 Y at q=( 0.000, 0.000, 0.000):   1976.05s
 Perturbation    9 (of   18): Ti    2 Z at q=( 0.000, 0.000, 0.000):   2197.45s
  Parallel strategy changed for perturbation using 363 k-points
  Data is distributed by G-vector(12-way) and k-point(32-way) and band(1-way)
 Perturbation   10 (of   18): Ti    5 X at q=( 0.000, 0.000, 0.000):   2603.03s
  Parallel strategy changed for perturbation using 183 k-points
  Data is distributed by G-vector(12-way) and k-point(32-way) and band(1-way)
 Perturbation   11 (of   18): Ti    5 Y at q=( 0.000, 0.000, 0.000):   2814.35s
 Perturbation   12 (of   18): Ti    5 Z at q=( 0.000, 0.000, 0.000):   3012.29s
  Parallel strategy changed for perturbation using 363 k-points
  Data is distributed by G-vector(12-way) and k-point(32-way) and band(1-way)
 Perturbation   13 (of   18): Ti    6 X at q=( 0.000, 0.000, 0.000):   3384.22s
  Parallel strategy changed for perturbation using 183 k-points
  Data is distributed by G-vector(12-way) and k-point(32-way) and band(1-way)
 Perturbation   14 (of   18): Ti    6 Y at q=( 0.000, 0.000, 0.000):   3616.85s
 Perturbation   15 (of   18): Ti    6 Z at q=( 0.000, 0.000, 0.000):   3838.15s
  Parallel strategy changed for perturbation using 363 k-points
  Data is distributed by G-vector(12-way) and k-point(32-way) and band(1-way)
 Perturbation   16 (of   18): V     1 X at q=( 0.000, 0.000, 0.000):   4242.59s
  Parallel strategy changed for perturbation using 183 k-points
  Data is distributed by G-vector(12-way) and k-point(32-way) and band(1-way)
 Perturbation   17 (of   18): V     1 Y at q=( 0.000, 0.000, 0.000):   4466.41s
  Parallel strategy changed for perturbation using 108 k-points
  Data is distributed by G-vector(32-way) and k-point(12-way) and band(1-way)
 Perturbation   18 (of   18): V     1 Z at q=( 0.000, 0.000, 0.000):   4669.33s
  Parallel strategy changed for perturbation using 198 k-points
  Data is distributed by G-vector(12-way) and k-point(32-way) and band(1-way)

 Phonon supercell    2 (of 5)      [ -1  0  0;  0  1  1;  0  1 -1]:    4984.94s
 -------------------------------------------------------------------------------
  Parallel strategy changed for perturbation using 200 k-points
  Data is distributed by G-vector(12-way) and k-point(32-way) and band(1-way)

Writing analysis data to ti64_hcp_phonon.castep_bin

Writing model to ti64_hcp_phonon.check
 Perturbation    1 (of   24): Al    1 X at q=( 0.000, 0.000, 0.000):   5187.10s
  Parallel strategy changed for perturbation using 200 k-points
  Data is distributed by G-vector(48-way) and k-point(8-way) and band(1-way)
 Perturbation    2 (of   24): Al    1 Y at q=( 0.000, 0.000, 0.000):   5480.97s
 Perturbation    3 (of   24): Al    1 Z at q=( 0.000, 0.000, 0.000):   5762.73s
  Parallel strategy changed for perturbation using 352 k-points
  Data is distributed by G-vector(12-way) and k-point(32-way) and band(1-way)
 Perturbation    4 (of   24): Ti    1 X at q=( 0.000, 0.000, 0.000):   6097.59s
  Parallel strategy changed for perturbation using 200 k-points
  Data is distributed by G-vector(48-way) and k-point(8-way) and band(1-way)
 Perturbation    5 (of   24): Ti    1 Y at q=( 0.000, 0.000, 0.000):   6400.82s
 Perturbation    6 (of   24): Ti    1 Z at q=( 0.000, 0.000, 0.000):   6697.69s
  Parallel strategy changed for perturbation using 352 k-points
  Data is distributed by G-vector(12-way) and k-point(32-way) and band(1-way)
 Perturbation    7 (of   24): Ti    2 X at q=( 0.000, 0.000, 0.000):   7070.87s
  Parallel strategy changed for perturbation using 200 k-points
  Data is distributed by G-vector(48-way) and k-point(8-way) and band(1-way)
 Perturbation    8 (of   24): Ti    2 Y at q=( 0.000, 0.000, 0.000):   7393.13s
 Perturbation    9 (of   24): Ti    2 Z at q=( 0.000, 0.000, 0.000):   7723.63s
  Parallel strategy changed for perturbation using 352 k-points
  Data is distributed by G-vector(12-way) and k-point(32-way) and band(1-way)
 Perturbation   10 (of   24): Ti    3 X at q=( 0.000, 0.000, 0.000):   8111.89s
  Parallel strategy changed for perturbation using 200 k-points
  Data is distributed by G-vector(48-way) and k-point(8-way) and band(1-way)
 Perturbation   11 (of   24): Ti    3 Y at q=( 0.000, 0.000, 0.000):   8411.98s
 Perturbation   12 (of   24): Ti    3 Z at q=( 0.000, 0.000, 0.000):   8698.47s
  Parallel strategy changed for perturbation using 352 k-points
  Data is distributed by G-vector(12-way) and k-point(32-way) and band(1-way)
 Perturbation   13 (of   24): Ti    4 X at q=( 0.000, 0.000, 0.000):   9098.46s
  Parallel strategy changed for perturbation using 200 k-points
  Data is distributed by G-vector(48-way) and k-point(8-way) and band(1-way)
 Perturbation   14 (of   24): Ti    4 Y at q=( 0.000, 0.000, 0.000):   9437.60s
 Perturbation   15 (of   24): Ti    4 Z at q=( 0.000, 0.000, 0.000):   9768.22s
  Parallel strategy changed for perturbation using 352 k-points
  Data is distributed by G-vector(12-way) and k-point(32-way) and band(1-way)
 Perturbation   16 (of   24): Ti    5 X at q=( 0.000, 0.000, 0.000):  10164.88s
  Parallel strategy changed for perturbation using 200 k-points
  Data is distributed by G-vector(48-way) and k-point(8-way) and band(1-way)
 Perturbation   17 (of   24): Ti    5 Y at q=( 0.000, 0.000, 0.000):  10457.93s
 Perturbation   18 (of   24): Ti    5 Z at q=( 0.000, 0.000, 0.000):  10785.69s
  Parallel strategy changed for perturbation using 352 k-points
  Data is distributed by G-vector(12-way) and k-point(32-way) and band(1-way)
 Perturbation   19 (of   24): Ti    6 X at q=( 0.000, 0.000, 0.000):  11160.09s
  Parallel strategy changed for perturbation using 200 k-points
  Data is distributed by G-vector(48-way) and k-point(8-way) and band(1-way)
 Perturbation   20 (of   24): Ti    6 Y at q=( 0.000, 0.000, 0.000):  11499.30s
 Perturbation   21 (of   24): Ti    6 Z at q=( 0.000, 0.000, 0.000):  11825.30s
  Parallel strategy changed for perturbation using 352 k-points
  Data is distributed by G-vector(12-way) and k-point(32-way) and band(1-way)
 Perturbation   22 (of   24): V     1 X at q=( 0.000, 0.000, 0.000):  12189.91s
  Parallel strategy changed for perturbation using 200 k-points
  Data is distributed by G-vector(48-way) and k-point(8-way) and band(1-way)
 Perturbation   23 (of   24): V     1 Y at q=( 0.000, 0.000, 0.000):  12515.08s
 Perturbation   24 (of   24): V     1 Z at q=( 0.000, 0.000, 0.000):  12842.55s
  Parallel strategy changed for perturbation using 352 k-points
  Data is distributed by G-vector(12-way) and k-point(32-way) and band(1-way)

 Phonon supercell    3 (of 5)      [  0  0 -1;  0 -1  0; -2 -1  0]:   13237.46s
 -------------------------------------------------------------------------------
  Parallel strategy changed for perturbation using 162 k-points
  Data is distributed by G-vector(12-way) and k-point(32-way) and band(1-way)

Writing analysis data to ti64_hcp_phonon.castep_bin

Writing model to ti64_hcp_phonon.check
 Perturbation    1 (of   24): Al    1 X at q=( 0.000, 0.000, 0.000):  13403.42s
  Parallel strategy changed for perturbation using 162 k-points
  Data is distributed by G-vector(64-way) and k-point(6-way) and band(1-way)
 Perturbation    2 (of   24): Al    1 Y at q=( 0.000, 0.000, 0.000):  13806.48s
 Perturbation    3 (of   24): Al    1 Z at q=( 0.000, 0.000, 0.000):  14209.71s
  Parallel strategy changed for perturbation using 297 k-points
  Data is distributed by G-vector(12-way) and k-point(32-way) and band(1-way)
 Perturbation    4 (of   24): Ti    1 X at q=( 0.000, 0.000, 0.000):  14450.99s
  Parallel strategy changed for perturbation using 162 k-points
  Data is distributed by G-vector(64-way) and k-point(6-way) and band(1-way)
 Perturbation    5 (of   24): Ti    1 Y at q=( 0.000, 0.000, 0.000):  14883.89s
 Perturbation    6 (of   24): Ti    1 Z at q=( 0.000, 0.000, 0.000):  15308.37s
  Parallel strategy changed for perturbation using 297 k-points
  Data is distributed by G-vector(12-way) and k-point(32-way) and band(1-way)
 Perturbation    7 (of   24): Ti    2 X at q=( 0.000, 0.000, 0.000):  15639.98s
  Parallel strategy changed for perturbation using 162 k-points
  Data is distributed by G-vector(64-way) and k-point(6-way) and band(1-way)
 Perturbation    8 (of   24): Ti    2 Y at q=( 0.000, 0.000, 0.000):  16072.81s
 Perturbation    9 (of   24): Ti    2 Z at q=( 0.000, 0.000, 0.000):  16501.47s
  Parallel strategy changed for perturbation using 297 k-points
  Data is distributed by G-vector(12-way) and k-point(32-way) and band(1-way)
 Perturbation   10 (of   24): Ti    3 X at q=( 0.000, 0.000, 0.000):  16833.35s
  Parallel strategy changed for perturbation using 162 k-points
  Data is distributed by G-vector(64-way) and k-point(6-way) and band(1-way)
 Perturbation   11 (of   24): Ti    3 Y at q=( 0.000, 0.000, 0.000):  17263.08s
 Perturbation   12 (of   24): Ti    3 Z at q=( 0.000, 0.000, 0.000):  17687.68s
  Parallel strategy changed for perturbation using 297 k-points
  Data is distributed by G-vector(12-way) and k-point(32-way) and band(1-way)
 Perturbation   13 (of   24): Ti    4 X at q=( 0.000, 0.000, 0.000):  18009.83s
  Parallel strategy changed for perturbation using 162 k-points
  Data is distributed by G-vector(64-way) and k-point(6-way) and band(1-way)
 Perturbation   14 (of   24): Ti    4 Y at q=( 0.000, 0.000, 0.000):  18446.08s
 Perturbation   15 (of   24): Ti    4 Z at q=( 0.000, 0.000, 0.000):  18875.75s
  Parallel strategy changed for perturbation using 297 k-points
  Data is distributed by G-vector(12-way) and k-point(32-way) and band(1-way)
 Perturbation   16 (of   24): Ti    5 X at q=( 0.000, 0.000, 0.000):  19206.05s
  Parallel strategy changed for perturbation using 162 k-points
  Data is distributed by G-vector(64-way) and k-point(6-way) and band(1-way)
 Perturbation   17 (of   24): Ti    5 Y at q=( 0.000, 0.000, 0.000):  19631.19s
 Perturbation   18 (of   24): Ti    5 Z at q=( 0.000, 0.000, 0.000):  20057.87s
  Parallel strategy changed for perturbation using 297 k-points
  Data is distributed by G-vector(12-way) and k-point(32-way) and band(1-way)
 Perturbation   19 (of   24): Ti    6 X at q=( 0.000, 0.000, 0.000):  20385.34s
  Parallel strategy changed for perturbation using 162 k-points
  Data is distributed by G-vector(64-way) and k-point(6-way) and band(1-way)
 Perturbation   20 (of   24): Ti    6 Y at q=( 0.000, 0.000, 0.000):  20817.58s
 Perturbation   21 (of   24): Ti    6 Z at q=( 0.000, 0.000, 0.000):  21245.79s
  Parallel strategy changed for perturbation using 297 k-points
  Data is distributed by G-vector(12-way) and k-point(32-way) and band(1-way)
 Perturbation   22 (of   24): V     1 X at q=( 0.000, 0.000, 0.000):  21575.07s
  Parallel strategy changed for perturbation using 162 k-points
  Data is distributed by G-vector(64-way) and k-point(6-way) and band(1-way)
 Perturbation   23 (of   24): V     1 Y at q=( 0.000, 0.000, 0.000):  22001.46s
 Perturbation   24 (of   24): V     1 Z at q=( 0.000, 0.000, 0.000):  22423.09s
  Parallel strategy changed for perturbation using 297 k-points
  Data is distributed by G-vector(12-way) and k-point(32-way) and band(1-way)

 Phonon supercell    4 (of 5)      [  0  0  1;  1  1  0; -1  1  0]:   22739.39s
 -------------------------------------------------------------------------------
  Parallel strategy changed for perturbation using 90 k-points
  Data is distributed by G-vector(12-way) and k-point(32-way) and band(1-way)

Writing analysis data to ti64_hcp_phonon.castep_bin

Writing model to ti64_hcp_phonon.check
 Perturbation    1 (of   18): Al    1 X at q=( 0.000, 0.000, 0.000):  22829.46s
  Parallel strategy changed for perturbation using 162 k-points
  Data is distributed by G-vector(12-way) and k-point(32-way) and band(1-way)
 Perturbation    2 (of   18): Al    1 Y at q=( 0.000, 0.000, 0.000):  23047.85s
  Parallel strategy changed for perturbation using 90 k-points
  Data is distributed by G-vector(64-way) and k-point(6-way) and band(1-way)
 Perturbation    3 (of   18): Al    1 Z at q=( 0.000, 0.000, 0.000):  23326.28s
  Parallel strategy changed for perturbation using 165 k-points
  Data is distributed by G-vector(12-way) and k-point(32-way) and band(1-way)
 Perturbation    4 (of   18): Ti    1 X at q=( 0.000, 0.000, 0.000):  23555.21s
  Parallel strategy changed for perturbation using 162 k-points
  Data is distributed by G-vector(12-way) and k-point(32-way) and band(1-way)
 Perturbation    5 (of   18): Ti    1 Y at q=( 0.000, 0.000, 0.000):  23785.39s
 Perturbation    6 (of   18): Ti    1 Z at q=( 0.000, 0.000, 0.000):  24000.93s
  Parallel strategy changed for perturbation using 297 k-points
  Data is distributed by G-vector(12-way) and k-point(32-way) and band(1-way)
 Perturbation    7 (of   18): Ti    2 X at q=( 0.000, 0.000, 0.000):  24340.27s
  Parallel strategy changed for perturbation using 162 k-points
  Data is distributed by G-vector(12-way) and k-point(32-way) and band(1-way)
 Perturbation    8 (of   18): Ti    2 Y at q=( 0.000, 0.000, 0.000):  24573.56s
 Perturbation    9 (of   18): Ti    2 Z at q=( 0.000, 0.000, 0.000):  24790.99s
  Parallel strategy changed for perturbation using 297 k-points
  Data is distributed by G-vector(12-way) and k-point(32-way) and band(1-way)
 Perturbation   10 (of   18): Ti    5 X at q=( 0.000, 0.000, 0.000):  25129.48s
  Parallel strategy changed for perturbation using 162 k-points
  Data is distributed by G-vector(12-way) and k-point(32-way) and band(1-way)
 Perturbation   11 (of   18): Ti    5 Y at q=( 0.000, 0.000, 0.000):  25360.08s
 Perturbation   12 (of   18): Ti    5 Z at q=( 0.000, 0.000, 0.000):  25576.76s
  Parallel strategy changed for perturbation using 297 k-points
  Data is distributed by G-vector(12-way) and k-point(32-way) and band(1-way)
 Perturbation   13 (of   18): Ti    6 X at q=( 0.000, 0.000, 0.000):  25916.58s
  Parallel strategy changed for perturbation using 162 k-points
  Data is distributed by G-vector(12-way) and k-point(32-way) and band(1-way)
 Perturbation   14 (of   18): Ti    6 Y at q=( 0.000, 0.000, 0.000):  26146.94s
 Perturbation   15 (of   18): Ti    6 Z at q=( 0.000, 0.000, 0.000):  26363.52s
  Parallel strategy changed for perturbation using 297 k-points
  Data is distributed by G-vector(12-way) and k-point(32-way) and band(1-way)
 Perturbation   16 (of   18): V     1 X at q=( 0.000, 0.000, 0.000):  26693.92s
  Parallel strategy changed for perturbation using 162 k-points
  Data is distributed by G-vector(12-way) and k-point(32-way) and band(1-way)
 Perturbation   17 (of   18): V     1 Y at q=( 0.000, 0.000, 0.000):  26920.98s
  Parallel strategy changed for perturbation using 90 k-points
  Data is distributed by G-vector(64-way) and k-point(6-way) and band(1-way)
 Perturbation   18 (of   18): V     1 Z at q=( 0.000, 0.000, 0.000):  27200.14s
  Parallel strategy changed for perturbation using 165 k-points
  Data is distributed by G-vector(12-way) and k-point(32-way) and band(1-way)

 Phonon supercell    5 (of 5)      [  1  1  0;  0  1 -1;  0  1  1]:   27427.52s
 -------------------------------------------------------------------------------
  Parallel strategy changed for perturbation using 200 k-points
  Data is distributed by G-vector(12-way) and k-point(32-way) and band(1-way)

Writing analysis data to ti64_hcp_phonon.castep_bin

Writing model to ti64_hcp_phonon.check
 Perturbation    1 (of   18): Al    1 X at q=( 0.000, 0.000, 0.000):  27599.52s
  Parallel strategy changed for perturbation using 380 k-points
  Data is distributed by G-vector(12-way) and k-point(32-way) and band(1-way)
  +---------------- MEMORY AND SCRATCH DISK ESTIMATES PER PROCESS --------------+
  |                                                     Memory          Disk    |
  | Baseline code, static data and system overhead      591.0 MB         0.0 MB |
  | BLAS internal memory storage                          0.0 MB         0.0 MB |
  | Model and support data                              667.0 MB         0.0 MB |
  | Finite displacement phonon requirements             161.2 MB         0.0 MB |
  |                                               ----------------------------- |
  | Approx. total storage required per process         1419.3 MB         0.0 MB |
  |                                                                             |
  | Requirements will fluctuate during execution and may exceed these estimates |
  +-----------------------------------------------------------------------------+
 Perturbation    2 (of   18): Al    1 Y at q=( 0.000, 0.000, 0.000):  27996.00s
  Parallel strategy changed for perturbation using 200 k-points
  Data is distributed by G-vector(48-way) and k-point(8-way) and band(1-way)
 Perturbation    3 (of   18): Al    1 Z at q=( 0.000, 0.000, 0.000):  28297.92s
  Parallel strategy changed for perturbation using 352 k-points
  Data is distributed by G-vector(12-way) and k-point(32-way) and band(1-way)
 Perturbation    4 (of   18): Ti    1 X at q=( 0.000, 0.000, 0.000):  28716.98s
  Parallel strategy changed for perturbation using 380 k-points
  Data is distributed by G-vector(12-way) and k-point(32-way) and band(1-way)
 Perturbation    5 (of   18): Ti    1 Y at q=( 0.000, 0.000, 0.000):  29119.20s
 Perturbation    6 (of   18): Ti    1 Z at q=( 0.000, 0.000, 0.000):  29487.99s
  Parallel strategy changed for perturbation using 672 k-points
  Data is distributed by G-vector(12-way) and k-point(32-way) and band(1-way)
  +---------------- MEMORY AND SCRATCH DISK ESTIMATES PER PROCESS --------------+
  |                                                     Memory          Disk    |
  | Baseline code, static data and system overhead      591.0 MB         0.0 MB |
  | BLAS internal memory storage                          0.0 MB         0.0 MB |
  | Model and support data                              667.0 MB         0.0 MB |
  | Finite displacement phonon requirements             209.6 MB         0.0 MB |
  |                                               ----------------------------- |
  | Approx. total storage required per process         1467.7 MB         0.0 MB |
  |                                                                             |
  | Requirements will fluctuate during execution and may exceed these estimates |
  +-----------------------------------------------------------------------------+
 Perturbation    7 (of   18): Ti    2 X at q=( 0.000, 0.000, 0.000):  30229.69s
  Parallel strategy changed for perturbation using 380 k-points
  Data is distributed by G-vector(12-way) and k-point(32-way) and band(1-way)
 Perturbation    8 (of   18): Ti    2 Y at q=( 0.000, 0.000, 0.000):  30649.49s
 Perturbation    9 (of   18): Ti    2 Z at q=( 0.000, 0.000, 0.000):  31058.49s
  Parallel strategy changed for perturbation using 672 k-points
  Data is distributed by G-vector(12-way) and k-point(32-way) and band(1-way)
 Perturbation   10 (of   18): Ti    5 X at q=( 0.000, 0.000, 0.000):  31754.00s
  Parallel strategy changed for perturbation using 380 k-points
  Data is distributed by G-vector(12-way) and k-point(32-way) and band(1-way)
 Perturbation   11 (of   18): Ti    5 Y at q=( 0.000, 0.000, 0.000):  32168.82s
 Perturbation   12 (of   18): Ti    5 Z at q=( 0.000, 0.000, 0.000):  32560.77s
  Parallel strategy changed for perturbation using 672 k-points
  Data is distributed by G-vector(12-way) and k-point(32-way) and band(1-way)
 Perturbation   13 (of   18): Ti    6 X at q=( 0.000, 0.000, 0.000):  33271.47s
  Parallel strategy changed for perturbation using 380 k-points
  Data is distributed by G-vector(12-way) and k-point(32-way) and band(1-way)
 Perturbation   14 (of   18): Ti    6 Y at q=( 0.000, 0.000, 0.000):  33700.38s
 Perturbation   15 (of   18): Ti    6 Z at q=( 0.000, 0.000, 0.000):  34100.99s
  Parallel strategy changed for perturbation using 672 k-points
  Data is distributed by G-vector(12-way) and k-point(32-way) and band(1-way)
 Perturbation   16 (of   18): V     1 X at q=( 0.000, 0.000, 0.000):  34789.23s
  Parallel strategy changed for perturbation using 380 k-points
  Data is distributed by G-vector(12-way) and k-point(32-way) and band(1-way)
 Perturbation   17 (of   18): V     1 Y at q=( 0.000, 0.000, 0.000):  35220.05s
  Parallel strategy changed for perturbation using 200 k-points
  Data is distributed by G-vector(48-way) and k-point(8-way) and band(1-way)
 Perturbation   18 (of   18): V     1 Z at q=( 0.000, 0.000, 0.000):  35581.77s
  Parallel strategy changed for perturbation using 352 k-points
  Data is distributed by G-vector(12-way) and k-point(32-way) and band(1-way)
 %%%%%%%%%%%%%%%%%%%%%%%%%%%%%%%%%%%%%%%%%%%%%%%%%%%%%%%%%%%%%%%%%%%%%%%%%%%%%%%%%%%%%%%%%%%%%%%%%%%%%%%%%%%%%%%%%%%
            Force Constant matrix
 Ion XYZ  L          part  (eV/A**2)
 Supercell   1 at (0,0,0)        0.000 A                             
   1   1          7.848470         -0.000000          0.000000         -0.412675         -0.316727          0.000000
                 -0.511317         -0.334497         -0.921429         -0.508762          1.114471          0.000000
                 -0.002996          0.010855         -0.010684         -1.703744         -0.255975          0.000000
                 -0.121284          0.049158          0.078381          0.072179          0.000000         -0.000000
   1   2         -0.000000          6.969128          0.000000         -0.964092         -1.153152          0.000000
                 -0.337970         -0.063053         -0.514387          0.598044         -1.481784          0.000000
                 -0.002231         -0.003634          0.044118          0.334344         -0.049828          0.000000
                  0.049159         -0.018825         -0.018063          0.000000         -0.461604          0.519736
   1   3          0.000000          0.000000          7.214731          0.000000          0.000000         -0.054103
                 -0.872672         -0.458153         -1.255372          0.000000          0.000000          0.034884
                 -0.019505          0.025035         -0.004701          0.000000          0.000000         -0.033390
                 -0.055773          0.037377          0.011348         -0.000000          0.461266         -0.822523
   2   1         -0.412675         -0.964092          0.000000          7.040543         -0.223793          0.000000
                 -0.001062          0.055482         -0.103738         -0.000295         -0.036777          0.000000
                 -0.008548         -0.005051          0.037285         -0.432608          1.196997          0.000000
                 -0.017349          0.012015         -0.046364         -0.005654         -0.090451          0.007844
   2   2         -0.316727         -1.153152          0.000000         -0.223793          7.633019          0.000000
                  0.011358         -0.704122          0.874065          0.003857         -0.233863          0.000000
                 -0.016771         -0.015670         -0.012788         -0.096558         -1.143526          0.000000
                  0.058925         -0.018688          0.082982         -0.055676         -0.161795          0.091807
   2   3          0.000000          0.000000         -0.054103          0.000000          0.000000          6.379552
                 -0.089355          1.016832         -0.792984          0.000000          0.000000         -0.011801
                 -0.033879          0.005528         -0.019841          0.000000          0.000000         -0.342844
                 -0.046372          0.076747          0.053275          0.107608          0.088216          0.006234
   3   1         -0.511317         -0.337970         -0.872672         -0.001062          0.011358         -0.089355
                  6.523395         -0.288226          0.000000          0.123187          0.016917         -0.042644
                 -0.028238         -0.042892          0.000000         -0.558576          0.307856          0.900596
                 -0.375231         -0.149364          0.000000         -0.418229          0.457541          0.000000
   3   2         -0.334497         -0.063053         -0.458153          0.055482         -0.704122          1.016832
                 -0.288226          4.697181          0.000000         -0.024686          0.332705          0.111243
                  0.048457         -0.156925          0.000000          0.376701         -0.214193         -0.597666
                  1.003589         -0.639779          0.000000         -0.642090         -0.631099          0.000000
   3   3         -0.921429         -0.514387         -1.255372         -0.103738          0.874065         -0.792984
                  0.000000          0.000000          7.565451         -0.107107          0.321081          0.209271
                  0.000000          0.000000         -0.010712          0.873969         -0.470987         -0.815408
                  0.000000          0.000000         -0.034412          0.000000          0.000000         -0.513589
   4   1         -0.508762          0.598044          0.000000         -0.000295          0.003857          0.000000
                  0.123187         -0.024686         -0.107107          7.040543          0.223793          0.000000
                 -0.001062         -0.055482          0.103738         -0.679310         -0.394459          0.000000
                 -0.596119         -0.401333         -0.821933         -0.427765          0.252413          0.303934
   4   2          1.114471         -1.481784          0.000000         -0.036777         -0.233863          0.000000
                  0.016917          0.332705          0.321081          0.223793          7.633019          0.000000
                 -0.011358         -0.704122          0.874065         -1.069016         -1.426953          0.000000
                 -0.447374         -0.129980         -0.553580          0.246315         -0.158660         -0.264784
   4   3          0.000000          0.000000          0.034884          0.000000          0.000000         -0.011801
                 -0.042644          0.111243          0.209271          0.000000          0.000000          6.379552
                  0.089355          1.016832         -0.792984          0.000000          0.000000         -0.183811
                 -0.714522         -0.401567         -0.821358          0.552475         -0.251042         -0.738178
   5   1         -0.002996         -0.002231         -0.019505         -0.008548         -0.016771         -0.033879
                 -0.028238          0.048457          0.000000         -0.001062         -0.011358          0.089355
                  6.523395          0.288226          0.000000         -0.019260         -0.027452          0.056684
                 -0.154091         -0.872513          0.000000         -0.329005          0.736993          0.000000
   5   2          0.010855         -0.003634          0.025035         -0.005051         -0.015670          0.005528
                 -0.042892         -0.156925          0.000000         -0.055482         -0.704122          1.016832
                  0.288226          4.697181          0.000000         -0.020695         -0.053772          0.074594
                  0.183626         -0.664677          0.000000         -0.290471         -0.614262          0.000000
   5   3         -0.010684          0.044118         -0.004701          0.037285         -0.012788         -0.019841
                  0.000000          0.000000         -0.010712          0.103738          0.874065         -0.792984
                  0.000000          0.000000          7.565451          0.024767          0.044400         -0.010569
                  0.000000          0.000000          0.043139          0.000000          0.000000         -0.060446
   6   1         -1.703744          0.334344          0.000000         -0.432608         -0.096558          0.000000
                 -0.558576          0.376701          0.873969         -0.679310         -1.069016          0.000000
                 -0.019260         -0.020695          0.024767          7.492630         -0.000000          0.000000
                  0.179662         -0.000000          0.000000          0.357587          0.136557         -0.372194
   6   2         -0.255975         -0.049828          0.000000          1.196997         -1.143526          0.000000
                  0.307856         -0.214193         -0.470987         -0.394459         -1.426953          0.000000
                 -0.027452         -0.053772          0.044400         -0.000000          7.544972          0.000000
                  0.000000         -0.885523          1.038289          0.032856          0.201416         -0.033053
   6   3          0.000000          0.000000         -0.033390          0.000000          0.000000         -0.342844
                  0.900596         -0.597666         -0.815408          0.000000          0.000000         -0.183811
                  0.056684          0.074594         -0.010569          0.000000          0.000000          7.211059
                  0.000000          0.906604         -0.841589         -0.144016         -0.037791          0.247370
   7   1         -0.121284          0.049159         -0.055773         -0.017349          0.058925         -0.046372
                 -0.375231          1.003589          0.000000         -0.596119         -0.447374         -0.714522
                 -0.154091          0.183626          0.000000          0.179662          0.000000          0.000000
                  4.923735         -0.000000          0.000000          0.181716         -0.484214          0.000000
   7   2          0.049158         -0.018825          0.037377          0.012015         -0.018688          0.076747
                 -0.149364         -0.639779          0.000000         -0.401333         -0.129980         -0.401567
                 -0.872513         -0.664677          0.000000         -0.000000         -0.885523          0.906604
                 -0.000000          6.782002          0.000000          0.746540         -0.144604          0.000000
   7   3          0.078381         -0.018063          0.011348         -0.046364          0.082982          0.053275
                  0.000000          0.000000         -0.034412         -0.821933         -0.553580         -0.821358
                  0.000000          0.000000          0.043139          0.000000          1.038289         -0.841589
                  0.000000          0.000000          6.323019          0.000000          0.000000         -0.013081
   8   1          0.072179          0.000000         -0.000000         -0.005654         -0.055676          0.107608
                 -0.418229         -0.642090          0.000000         -0.427765          0.246315          0.552475
                 -0.329005         -0.290471          0.000000          0.357587          0.032856         -0.144016
                  0.181716          0.746540          0.000000          2.358496         -0.000000          0.000000
   8   2          0.000000         -0.461604          0.461266         -0.090451         -0.161795          0.088216
                  0.457541         -0.631099          0.000000          0.252413         -0.158660         -0.251042
                  0.736993         -0.614262          0.000000          0.136557          0.201416         -0.037791
                 -0.484214         -0.144604          0.000000         -0.000000          4.252405          0.000000
   8   3         -0.000000          0.519736         -0.822523          0.007844          0.091807          0.006234
                  0.000000          0.000000         -0.513589          0.303934         -0.264784         -0.738178
                  0.000000          0.000000         -0.060446         -0.372194         -0.033053          0.247370
                  0.000000          0.000000         -0.013081          0.000000          0.000000          5.944112

 Supercell   2 at (1,0,0)        5.765 A                             
   1   1          0.000972          0.019580          0.000000         -0.089512          0.109964          0.000000
                  0.012620         -0.043777         -0.042074         -0.412675          0.316727          0.000000
                 -0.511317          0.334497          0.921429          0.087135          0.000000          0.000000
                 -0.011289         -0.000000          0.000000         -0.002488          0.015316          0.032981
   1   2          0.019580         -0.014058          0.000000          0.085882          0.036953          0.000000
                 -0.045170          0.055706         -0.024869          0.964092         -1.153152          0.000000
                  0.337970         -0.063053         -0.514387          0.000000         -0.148654          0.000000
                 -0.000000         -0.059808          0.142994          0.025115         -0.010132         -0.007143
   1   3          0.000000          0.000000          0.016709          0.000000          0.000000          0.003689
                 -0.015254         -0.006872         -0.013447          0.000000          0.000000         -0.054103
                  0.872672         -0.458153         -1.255372          0.000000          0.000000         -0.017119
                 -0.000000         -0.039335          0.002060          0.021584         -0.029733         -0.000570
   2   1         -0.089512          0.085882          0.000000         -0.045656          0.108662          0.000000
                  0.000017          0.036470          0.058788         -1.216050          0.291540          0.000000
                  0.257181          0.062826         -0.259624         -0.679310          0.394459          0.000000
                 -0.596119          0.401333          0.821933         -0.067517         -0.010770          0.088381
   2   2          0.109964          0.036953          0.000000          0.108662         -0.229321          0.000000
                  0.021159         -0.042530         -0.047548         -0.291540         -0.206810          0.000000
                  0.130382          0.163860         -0.247368          1.069016         -1.426953          0.000000
                  0.447374         -0.129980         -0.553580         -0.070323          0.009192         -0.009062
   2   3          0.000000          0.000000          0.003689          0.000000          0.000000         -0.015256
                  0.049229         -0.099557         -0.019168          0.000000          0.000000         -0.230704
                 -0.100468         -0.079649          0.232538          0.000000          0.000000         -0.183811
                  0.714522         -0.401567         -0.821358          0.089898         -0.025949         -0.024232
   3   1          0.012620         -0.045170         -0.015254          0.000017          0.021159          0.049229
                 -0.069073          0.268632          0.000000          0.257181         -0.130382          0.100468
                 -1.261504         -0.470263          0.000000         -0.019260          0.027452         -0.056684
                 -0.154091          0.872513          0.000000         -0.111029          0.091386          0.000000
   3   2         -0.043777          0.055706         -0.006872          0.036470         -0.042530         -0.099557
                  0.268632         -0.408435          0.000000         -0.062826          0.163860         -0.079649
                  0.470263         -0.259562          0.000000          0.020695         -0.053772          0.074594
                 -0.183626         -0.664677          0.000000          0.015489         -0.090775          0.000000
   3   3         -0.042074         -0.024869         -0.013447          0.058788         -0.047548         -0.019168
                  0.000000          0.000000         -0.012023          0.259624         -0.247368          0.232538
                  0.000000          0.000000         -0.404735         -0.024767          0.044400         -0.010569
                  0.000000          0.000000          0.043139          0.000000          0.000000         -0.035005
   4   1         -0.412675          0.964092          0.000000         -1.216050         -0.291540          0.000000
                  0.257181         -0.062826          0.259624          0.102500         -0.150329          0.000000
                 -0.066088          0.083877          0.087651         -0.153846          0.073321          0.000000
                 -0.010660         -0.001948         -0.036995         -0.005654          0.090451         -0.007844
   4   2          0.316727         -1.153152          0.000000          0.291540         -0.206810          0.000000
                 -0.130382          0.163860         -0.247368         -0.150329          0.279312          0.000000
                  0.152638         -0.137949         -0.116437          0.089318         -0.013825          0.000000
                  0.030846         -0.012429          0.023709          0.055676         -0.161795          0.091807
   4   3          0.000000          0.000000         -0.054103          0.000000          0.000000         -0.230704
                  0.100468         -0.079649          0.232538          0.000000          0.000000         -0.102094
                  0.072579         -0.144711          0.019424          0.000000          0.000000         -0.033879
                  0.009307         -0.009349         -0.090296         -0.107608          0.088216          0.006234
   5   1         -0.511317          0.337970          0.872672          0.257181          0.130382         -0.100468
                 -1.261504          0.470263          0.000000         -0.066088          0.152638          0.072579
                 -0.007444          0.125677          0.000000         -0.207940          0.002228          0.153049
                 -0.119101          0.085283          0.000000         -0.418229         -0.457541          0.000000
   5   2          0.334497         -0.063053         -0.458153          0.062826          0.163860         -0.079649
                 -0.470263         -0.259562          0.000000          0.083877         -0.137949         -0.144711
                  0.125677          0.161470          0.000000          0.060838          0.043039          0.017611
                  0.094038         -0.021416          0.000000          0.642090         -0.631099          0.000000
   5   3          0.921429         -0.514387         -1.255372         -0.259624         -0.247368          0.232538
                  0.000000          0.000000         -0.404735          0.087651         -0.116437          0.019424
                  0.000000          0.000000          0.003509          0.152989         -0.023443          0.029019
                  0.000000          0.000000          0.001859          0.000000          0.000000         -0.513589
   6   1          0.087135          0.000000          0.000000         -0.679310          1.069016          0.000000
                 -0.019260          0.020695         -0.024767         -0.153846          0.089318          0.000000
                 -0.207940          0.060838          0.152989         -0.048641          0.065052          0.000000
                  0.021169          0.037257          0.014020         -0.055467         -0.000000         -0.000000
   6   2          0.000000         -0.148654          0.000000          0.394459         -1.426953          0.000000
                  0.027452         -0.053772          0.044400          0.073321         -0.013825          0.000000
                  0.002228          0.043039         -0.023443          0.065052         -0.087583          0.000000
                 -0.001139         -0.068487         -0.071754         -0.000000         -0.002610          0.038640
   6   3          0.000000          0.000000         -0.017119          0.000000          0.000000         -0.183811
                 -0.056684          0.074594         -0.010569          0.000000          0.000000         -0.033879
                  0.153049          0.017611          0.029019          0.000000          0.000000         -0.014356
                  0.064890         -0.085650          0.026402         -0.000000         -0.020739          0.010725
   7   1         -0.011289         -0.000000         -0.000000         -0.596119          0.447374          0.714522
                 -0.154091         -0.183626          0.000000         -0.010660          0.030846          0.009307
                 -0.119101          0.094038          0.000000          0.021169         -0.001139          0.064890
                 -0.080411          0.233829          0.000000          0.055595         -0.000000          0.000000
   7   2         -0.000000         -0.059808         -0.039335          0.401333         -0.129980         -0.401567
[...]
 +        Character table from group theory analysis of eigenvectors          +
 +                           Point Group =   6, C2v                           +
 + .......................................................................... +
 +  Rep  Mul |    E   m                                                       +
 +           | --------                                                       +
 + a      10 |    1  -1                                                       +
 + b      14 |    1   1                                                       +
 + -------------------------------------------------------------------------- +
 +  q-pt=   25 (  0.000000  0.000000  0.357143)     0.0370370370              +
 + -------------------------------------------------------------------------- +
 +  Acoustic sum rule correction <   0.012698 THz applied                     +
 +     N      Frequency irrep.                                                + 
 +                 (THz)                                                      + 
 +                                                                            +
 +     1       2.160337   a                                                   + 
 +     2       2.507296   b                                                   + 
 +     3       2.727058   a                                                   + 
 +     4       3.402472   b                                                   + 
 +     5       3.886269   a                                                   + 
 +     6       4.302091   a                                                   + 
 +     7       4.653130   b                                                   + 
 +     8       4.691978   a                                                   + 
 +     9       4.822723   b                                                   + 
 +    10       4.996886   b                                                   + 
 +    11       5.193427   b                                                   + 
 +    12       5.666560   b                                                   + 
 +    13       6.029845   a                                                   + 
 +    14       6.061278   b                                                   + 
 +    15       6.298769   b                                                   + 
 +    16       6.471484   a                                                   + 
 +    17       6.497951   a                                                   + 
 +    18       6.558214   b                                                   + 
 +    19       7.000263   a                                                   + 
 +    20       7.702777   b                                                   + 
 +    21       8.222297   b                                                   + 
 +    22       8.874970   b                                                   + 
 +    23       9.303440   b                                                   + 
 +    24       9.750892   a                                                   + 
 + .......................................................................... +
 +        Character table from group theory analysis of eigenvectors          +
 +                           Point Group =   6, C2v                           +
 + .......................................................................... +
 +  Rep  Mul |    E   m                                                       +
 +           | --------                                                       +
 + a      10 |    1  -1                                                       +
 + b      14 |    1   1                                                       +
 + -------------------------------------------------------------------------- +
 +  q-pt=   26 (  0.000000  0.000000  0.428571)     0.0370370370              +
 + -------------------------------------------------------------------------- +
 +  Acoustic sum rule correction <   0.009099 THz applied                     +
 +     N      Frequency irrep.                                                + 
 +                 (THz)                                                      + 
 +                                                                            +
 +     1       2.245277   a                                                   + 
 +     2       2.794427   b                                                   + 
 +     3       3.093114   a                                                   + 
 +     4       3.354447   b                                                   + 
 +     5       3.734368   a                                                   + 
 +     6       4.426525   a                                                   + 
 +     7       4.802629   b                                                   + 
 +     8       4.891329   a                                                   + 
 +     9       5.145079   b                                                   + 
 +    10       5.299118   b                                                   + 
 +    11       5.511972   b                                                   + 
 +    12       5.577478   b                                                   + 
 +    13       5.943622   b                                                   + 
 +    14       6.003147   a                                                   + 
 +    15       6.180336   b                                                   + 
 +    16       6.316615   a                                                   + 
 +    17       6.543403   a                                                   + 
 +    18       6.557232   b                                                   + 
 +    19       7.006577   a                                                   + 
 +    20       7.792701   b                                                   + 
 +    21       8.284086   b                                                   + 
 +    22       8.870028   b                                                   + 
 +    23       9.333390   b                                                   + 
 +    24       9.820118   a                                                   + 
 + .......................................................................... +
 +        Character table from group theory analysis of eigenvectors          +
 +                           Point Group =   6, C2v                           +
 + .......................................................................... +
 +  Rep  Mul |    E   m                                                       +
 +           | --------                                                       +
 + a      10 |    1  -1                                                       +
 + b      14 |    1   1                                                       +
 + -------------------------------------------------------------------------- +
 +  q-pt=   27 (  0.000000  0.000000  0.500000)     0.0370370370              +
 + -------------------------------------------------------------------------- +
 +  Acoustic sum rule correction <   0.007112 THz applied                     +
 +     N      Frequency irrep.                                                + 
 +                 (THz)                                                      + 
 +                                                                            +
 +     1       2.270607   a                                                   + 
 +     2       2.918133   b                                                   + 
 +     3       3.309248   a                                                   + 
 +     4       3.311709   b                                                   + 
 +     5       3.588577   a                                                   + 
 +     6       4.472691   a                                                   + 
 +     7       4.836058   b                                                   + 
 +     8       4.994408   a                                                   + 
 +     9       5.306446   b                                                   + 
 +    10       5.412067   b                                                   + 
 +    11       5.573893   b                                                   + 
 +    12       5.666413   b                                                   + 
 +    13       5.758859   b                                                   + 
 +    14       5.936457   a                                                   + 
 +    15       6.182054   b                                                   + 
 +    16       6.246977   a                                                   + 
 +    17       6.541660   b                                                   + 
 +    18       6.603944   a                                                   + 
 +    19       7.004454   a                                                   + 
 +    20       7.824810   b                                                   + 
 +    21       8.310112   b                                                   + 
 +    22       8.866307   b                                                   + 
 +    23       9.343713   b                                                   + 
 +    24       9.845543   a                                                   + 
 + .......................................................................... +
 +        Character table from group theory analysis of eigenvectors          +
 +                           Point Group =   6, C2v                           +
 + .......................................................................... +
 +  Rep  Mul |    E   2   m   m                                               +
 +           | ----------------                                               +
 + a      10 |    1   0   0  -1                                               +
 + b      14 |    1   0   0   1                                               +
 ==============================================================================

 ******************** Symmetrised Forces ********************
 *                                                          *
 *               Cartesian components (eV/A)                *
 * -------------------------------------------------------- *
 *                         x            y            z      *
 *                                                          *
 * Al              1      0.00000      0.01051      0.00000 *
 * Ti              1     -0.00070      0.00190      0.00000 *
 * Ti              2      0.00381     -0.00693      0.00000 *
 * Ti              3      0.00070      0.00190      0.00000 *
 * Ti              4     -0.00381     -0.00693      0.00000 *
 * Ti              5      0.00000     -0.00206      0.00000 *
 * Ti              6      0.00000      0.00030      0.00000 *
 * V               1      0.00000      0.00131      0.00000 *
 *                                                          *
 ************************************************************

 *********** Symmetrised Stress Tensor ***********
 *                                               *
 *          Cartesian components (GPa)           *
 * --------------------------------------------- *
 *             x             y             z     *
 *                                               *
 *  x     -0.206384      0.000000      0.000000  *
 *  y      0.000000      0.190635      0.000000  *
 *  z      0.000000      0.000000      0.016014  *
 *                                               *
 *  Pressure:   -0.0001                          *
 *                                               *
 *************************************************

 Pseudo atomic calculation performed for Al 3s2 3p1

 Converged in 22 iterations to a total energy of -107.1308 eV

 Pseudo atomic calculation performed for Ti 3s2 3p6 3d2 4s2

 Converged in 51 iterations to a total energy of -1587.0236 eV

 Pseudo atomic calculation performed for V 3s2 3p6 3d3 4s2

 Converged in 52 iterations to a total energy of -2065.7874 eV
Charge spilling parameter for spin component 1 = 0.09%

            Orbital Populations       
     Ion    Atom   Orbital             Charge
  -------------------------------------------
     Al     1      S                    0.929
     Al     1      Px                   0.692
     Al     1      Py                   0.678
     Al     1      Pz                   0.698
     Ti     1      S                    2.003
     Ti     1      Px                   2.006
     Ti     1      Py                   2.006
     Ti     1      Pz                   2.005
     Ti     1      S                    0.316
     Ti     1      Dzz                  0.580
     Ti     1      Dzy                  0.491
     Ti     1      Dzx                  0.510
     Ti     1      Dxx-yy               0.588
     Ti     1      Dxy                  0.530
     Ti     1      Px                   0.327
     Ti     1      Py                   0.301
     Ti     1      Pz                   0.340
     Ti     2      S                    2.003
     Ti     2      Px                   2.006
     Ti     2      Py                   2.006
     Ti     2      Pz                   2.006
     Ti     2      S                    0.290
     Ti     2      Dzz                  0.645
     Ti     2      Dzy                  0.476
     Ti     2      Dzx                  0.478
     Ti     2      Dxx-yy               0.551
     Ti     2      Dxy                  0.597
     Ti     2      Px                   0.313
     Ti     2      Py                   0.332
     Ti     2      Pz                   0.281
     Ti     3      S                    2.003
     Ti     3      Px                   2.006
     Ti     3      Py                   2.006
     Ti     3      Pz                   2.005
     Ti     3      S                    0.307
     Ti     3      Dzz                  0.597
     Ti     3      Dzy                  0.490
     Ti     3      Dzx                  0.512
     Ti     3      Dxx-yy               0.589
     Ti     3      Dxy                  0.558
     Ti     3      Px                   0.321
     Ti     3      Py                   0.282
     Ti     3      Pz                   0.349
     Ti     4      S                    2.003
     Ti     4      Px                   2.006
     Ti     4      Py                   2.006
     Ti     4      Pz                   2.006
     Ti     4      S                    0.287
     Ti     4      Dzz                  0.613
     Ti     4      Dzy                  0.480
     Ti     4      Dzx                  0.478
     Ti     4      Dxx-yy               0.561
     Ti     4      Dxy                  0.587
     Ti     4      Px                   0.307
     Ti     4      Py                   0.333
     Ti     4      Pz                   0.280
     Ti     5      S                    2.004
     Ti     5      Px                   2.007
     Ti     5      Py                   2.007
     Ti     5      Pz                   2.006
     Ti     5      S                    0.331
     Ti     5      Dzz                  0.615
     Ti     5      Dzy                  0.496
     Ti     5      Dzx                  0.499
     Ti     5      Dxx-yy               0.527
     Ti     5      Dxy                  0.612
     Ti     5      Px                   0.288
     Ti     5      Py                   0.350
     Ti     5      Pz                   0.322
     Ti     6      S                    2.004
     Ti     6      Px                   2.006
     Ti     6      Py                   2.006
     Ti     6      Pz                   2.006
     Ti     6      S                    0.313
     Ti     6      Dzz                  0.595
     Ti     6      Dzy                  0.498
     Ti     6      Dzx                  0.471
     Ti     6      Dxx-yy               0.578
     Ti     6      Dxy                  0.519
     Ti     6      Px                   0.356
     Ti     6      Py                   0.331
     Ti     6      Pz                   0.286
      V     1      S                    2.001
      V     1      Px                   2.003
      V     1      Py                   2.003
      V     1      Pz                   2.003
      V     1      Dzz                  0.909
      V     1      Dzy                  0.599
      V     1      Dzx                  0.669
      V     1      Dxx-yy               0.801
      V     1      Dxy                  0.771
      V     1      S                    0.344
      V     1      Px                   0.322
      V     1      Py                   0.300
      V     1      Pz                   0.289
  -------------------------------------------
                           Total:      88.000
  -------------------------------------------

     Atomic Populations (Mulliken)
     -----------------------------
Species          Ion     s       p       d       f      Total   Charge (e)
==========================================================================
  Al              1     0.929   2.068   0.000   0.000   2.996     0.004
  Ti              1     2.314   6.977   2.722   0.000  12.013    -0.013
  Ti              2     2.292   6.941   2.733   0.000  11.966     0.034
  Ti              3     2.314   6.977   2.722   0.000  12.013    -0.013
  Ti              4     2.292   6.941   2.733   0.000  11.966     0.034
  Ti              5     2.335   6.980   2.749   0.000  12.063    -0.063
  Ti              6     2.317   6.990   2.661   0.000  11.968     0.032
  V               1     2.345   6.921   3.749   0.000  13.015    -0.015
==========================================================================

                 Bond                   Population      Length (A)
======================================================================
              Ti 3 -- V 1                    0.10        2.82471
              Ti 1 -- V 1                    0.10        2.82471
              Ti 1 -- Ti 3                   0.15        2.82494
              Al 1 -- Ti 4                   0.34        2.82831
              Al 1 -- Ti 2                   0.34        2.82831
              Ti 4 -- V 1                    0.24        2.83578
              Ti 2 -- V 1                    0.24        2.83578
              Al 1 -- V 1                    0.35        2.83709
              Ti 5 -- Ti 6                   0.02        2.83874
              Ti 3 -- Ti 6                   0.01        2.84345
              Ti 1 -- Ti 6                   0.01        2.84345
              Ti 4 -- Ti 5                  -0.09        2.84434
              Ti 2 -- Ti 5                  -0.09        2.84434
              Ti 3 -- Ti 5                   0.15        2.84761
              Ti 1 -- Ti 5                   0.15        2.84761
              Al 1 -- Ti 1                   0.44        2.84802
              Al 1 -- Ti 3                   0.44        2.84802
              Ti 2 -- Ti 4                   0.20        2.86996
              Ti 2 -- Ti 6                   0.21        2.87396
              Ti 4 -- Ti 6                   0.21        2.87396
              Ti 3 -- Ti 4                  -0.15        2.88068
              Ti 1 -- Ti 2                  -0.15        2.88068
              Al 1 -- Ti 5                   0.52        2.88254
              Ti 6 -- V 1                    0.31        2.88257
======================================================================


Writing analysis data to ti64_hcp_phonon.castep_bin

Writing model to ti64_hcp_phonon.check
 
 A BibTeX formatted list of references used in this run has been written to 
 ti64_hcp_phonon.bib
 
Initialisation time =     18.41 s
Calculation time    =  35993.18 s
Finalisation time   =      2.26 s
Total time          =  36013.85 s
Peak Memory Use     = 2446552 kB
 
Overall parallel efficiency rating: Poor (47%)
 
Data was distributed by:-
G-vector (12-way); efficiency rating: Mediocre (50%)
k-point (32-way); efficiency rating: Very good (89%)
