 +-------------------------------------------------+
 |                                                 |
 |      CCC   AA    SSS  TTTTT  EEEEE  PPPP        |
 |     C     A  A  S       T    E      P   P       |
 |     C     AAAA   SS     T    EEE    PPPP        |
 |     C     A  A     S    T    E      P           |
 |      CCC  A  A  SSS     T    EEEEE  P           |
 |                                                 |
 +-------------------------------------------------+
 |                                                 |
 | Welcome to Academic Release CASTEP version 24.1 |
 | Ab Initio Total Energy Program                  |
 |                                                 |
 | Authors:                                        |
 | M. Segall, M. Probert, C. Pickard, P. Hasnip,   |
 | S. Clark, K. Refson, J. R. Yates,               |
 | A. Bartok-Partay, M. Payne                      |
 |                                                 |
 | Contributors:                                   |
 | P. Lindan, P. Haynes, J. White, V. Milman,      |
 | N. Govind, M. Gibson, P. Tulip, V. Cocula,      |
 | B. Montanari, D. Quigley, M. Glover,            |
 | L. Bernasconi, A. Perlov, M. Plummer,           |
 | E. McNellis, J. Meyer, J. Gale, D. Jochym       |
 | J. Aarons, B. Walker, R. Gillen, D. Jones       |
 | T. Green, I. J. Bush, C. J. Armstrong,          |
 | E. J. Higgins, E. L. Brown, M. S. McFly,        |
 | J. Wilkins, B-C. Shih, P. J. P. Byrne,          |
 | R. J. Maurer, J. C. Womack, J. Dziedzic,        |
 | L. LeBlanc, T. K. Stenczel, J. Kermode,         |
 | S. Sturniolo, B. Shi, B. Durham, M. Evans,      |
 | M. J. Smith, A. Tamerus, Z. Hawkhead,           |
 | V. Ravindran, T. Hollins, S. A. Joyce,          |
 | R. T. Strong, A. M. Reilly                      |
 |                                                 |
 | Copyright (c) 2000 - 2023                       |
 |                                                 |
 |     Distributed under license from Cambridge    |
 |     Enterprise for academic use only.           |
 |                                                 |
 | Please cite                                     |
 |                                                 |
 |     "First principles methods using CASTEP"     |
 |                                                 |
 |         Zeitschrift fuer Kristallographie       |
 |           220(5-6) pp. 567-570 (2005)           |
 |                                                 |
 | S. J. Clark, M. D. Segall, C. J. Pickard,       |
 | P. J. Hasnip, M. J. Probert, K. Refson,         |
 | M. C. Payne                                     |
 |                                                 |
 |       in all publications arising from          |
 |              your use of CASTEP                 |
 |                                                 |
 +-------------------------------------------------+
 |                                                 |
 |              http://www.castep.org              |
 |                                                 |
 +-------------------------------------------------+



 Compiled for linux_x86_64_gfortran10 on Tue, 02 May 2023 15:31:46 +0100
 from code version db08e394c+  default  Mon May 1 16:40:39 2023 +0100
 Compiler: GNU Fortran 10.2.0; Optimisation: fast
 Comms   : Open MPI v4.0.5
 MATHLIBS: openblas (LAPACK version 3.9.0)
 FFT Lib : fftw3 version fftw-3.3.8-sse2-avx-avx2-avx2_128
 Fundamental constants values: CODATA 2018

 Run started: Fri, 10 May 2024 16:40:25 +0100
 +-------------------------------------------------+
 |                                                 |
 |  D D D D    F F F F F  P P P P     T T T T T    |
 |  D       D  F          P       P       T        |
 |  D       D  F F F F    P P P P         T        |
 |  D       D  F          P               T        |
 |  D D D D    F          P               T        |
 |                                                 |
 +-------------------------------------------------+
 |                                                 |
 | Welcome to Castep Linear Response (DFPT)        |
 |                                                 |
 | Copyright (c) 2006 - 2023                       |
 |                                                 |
 | Please cite the following publications in all   |
 | work arising from your use of CASTEP LR.        |
 |                                                 |
 | K. Refson, S. J. Clark and P. R. Tulip          |
 | Variational density functional perturbation     |
 | theory for dielectrics and lattice dynamics     |
 | Phys. Rev. B 73(15), 155114 (2006)              |
 +-------------------------------------------------+


 Atomic calculation performed for Al: 1s2 2s2 2p6 3s2 3p1

 Converged in 54 iterations to an ae energy of -6603.783 eV

   ============================================================                
   | Pseudopotential Report - Date of generation 10-05-2024   |                
   ------------------------------------------------------------                
   | Element: Al Ionic charge:  3.00 Level of theory: PBE     |                
   | Atomic Solver: Koelling-Harmon                           |                
   |                                                          |                
   |               Reference Electronic Structure             |                
   |         Orbital         Occupation         Energy        |                
   |            3s              2.000           -0.285        |                
   |            3p              1.000           -0.100        |                
   |                                                          |                
   |                 Pseudopotential Definition               |                
   |        Beta     l      e      Rc     scheme   norm       |                
   |          1      0   -0.285   2.192     qc      0         |                
   |          2      0    0.250   2.192     qc      0         |                
   |          3      1   -0.100   2.192     qc      0         |                
   |          4      1    0.250   2.192     qc      0         |                
   |          5      2    0.000   2.000     qc      0         |                
   |          6      2    0.250   2.000     qc      0         |                
   |         loc     3    0.000   2.192     pn      0         |                
   |                                                          |                
   | Augmentation charge Rinner = 1.398                       |                
   | Partial core correction Rc = 1.398                       |                
   ------------------------------------------------------------                
   | "3|2.2|2.2|1.4|4|5|5|30:31:32U2U2"                       |                
   ------------------------------------------------------------                
   |      Author: Chris J. Pickard, Cambridge University      |                
   ============================================================                

 Atomic calculation performed for Ti: 1s2 2s2 2p6 3s2 3p6 3d2 4s2

 Converged in 79 iterations to an ae energy of -23226.658 eV

   ============================================================                
   | Pseudopotential Report - Date of generation 10-05-2024   |                
   ------------------------------------------------------------                
   | Element: Ti Ionic charge: 12.00 Level of theory: PBE     |                
   | Atomic Solver: Koelling-Harmon                           |                
   |                                                          |                
   |               Reference Electronic Structure             |                
   |         Orbital         Occupation         Energy        |                
   |            3s              2.000           -2.302        |                
   |            3p              6.000           -1.428        |                
   |            4s              2.000           -0.164        |                
   |            3d              2.000           -0.157        |                
   |                                                          |                
   |                 Pseudopotential Definition               |                
   |        Beta     l      e      Rc     scheme   norm       |                
   |          1      0   -2.302   1.793     qc      0         |                
   |          2      0   -0.164   1.793     qc      0         |                
   |          3      0    0.250   1.793     qc      0         |                
   |          4      1   -1.428   1.793     qc      0         |                
   |          5      1    0.250   1.793     qc      0         |                
   |          6      2   -0.157   1.793     qc      0         |                
   |          7      2    0.250   1.793     qc      0         |                
   |         loc     3    0.000   1.793     pn      0         |                
   |                                                          |                
   | Augmentation charge Rinner = 1.263                       |                
   | Partial core correction Rc = 1.263                       |                
   ------------------------------------------------------------                
   | "3|1.8|9|10|11|30U:40:31:32(qc=5.5)"                     |                
   ------------------------------------------------------------                
   |      Author: Chris J. Pickard, Cambridge University      |                
   ============================================================                

 Pseudo atomic calculation performed for Al 3s2 3p1

 Converged in 22 iterations to a total energy of -107.1308 eV

 Pseudo atomic calculation performed for Ti 3s2 3p6 3d2 4s2

 Converged in 51 iterations to a total energy of -1587.0236 eV
 Calculation parallelised over 192 processes.
 Data is distributed by G-vector(4-way) and k-point(48-way)

 ************************************ Title ************************************
 

 ***************************** General Parameters ******************************
  
 output verbosity                               : normal  (1)
 write checkpoint data to                       : ti64_bcc_phonon_AlAl.check
 type of calculation                            : phonon calculation
 stress calculation                             : on
 density difference calculation                 : off
 electron localisation func (ELF) calculation   : off
 Hirshfeld analysis                             : off
 polarisation (Berry phase) analysis            : off
 molecular orbital projected DOS                : off
 deltaSCF calculation                           : off
 unlimited duration calculation
 timing information                             : on
 memory usage estimate                          : on
 write extra output files                       : on
 write final potential to formatted file        : off
 write final density to formatted file          : off
 write structure in CELL formatted file         : on
 write BibTeX reference list                    : on
 write OTFG pseudopotential files               : on
 write electrostatic potential file             : on
 write bands file                               : on
 checkpoint writing                             : both castep_bin and check files
  
 output         length unit                     : A
 output           mass unit                     : amu
 output           time unit                     : ps
 output         charge unit                     : e
 output           spin unit                     : hbar/2
 output         energy unit                     : eV
 output          force unit                     : eV/A
 output       velocity unit                     : A/ps
 output       pressure unit                     : GPa
 output     inv_length unit                     : 1/A
 output      frequency unit                     : THz
 output force constant unit                     : eV/A**2
 output         volume unit                     : A**3
 output   IR intensity unit                     : (D/A)**2/amu
 output         dipole unit                     : D
 output         efield unit                     : eV/A/e
 output        entropy unit                     : J/mol/K
 output    efield chi2 unit                     : pm/V
  
 wavefunctions paging                           : none
 random number generator seed                   :  164025592
 data distribution                              : k-point only
 optimization strategy                          : maximize speed(+++)

 *********************** Exchange-Correlation Parameters ***********************
  
 using functional                               : Perdew Burke Ernzerhof
 relativistic treatment                         : Koelling-Harmon
 DFT+D: Semi-empirical dispersion correction    : off

 ************************* Pseudopotential Parameters **************************
  
 pseudopotential representation                 : reciprocal space
 <beta|phi> representation                      : reciprocal space
 spin-orbit coupling                            : off

 **************************** Basis Set Parameters *****************************
  
 plane wave basis set cut-off                   :   800.0000   eV
 size of standard grid                          :     2.0000
 size of   fine   grid                          :     4.0000
 size of   fine   gmax                          :    57.9620   1/A
 largest prime factor in FFT                    :          5
 finite basis set correction                    : automatic
 number of sample energies                      :          3
           sample  spacing                      :     5.0000   eV

 **************************** Electronic Parameters ****************************
  
 number of  electrons                           :  78.00    
 net charge of system                           :  0.000    
 treating system as non-spin-polarized
 number of bands                                :         74

 ********************* Electronic Minimization Parameters **********************
  
 Method: Treating system as metallic with density mixing treatment of electrons,
         and number of  SD  steps               :          1
         and number of  CG  steps               :          4
  
 total energy / atom convergence tol.           : 0.1000E-08   eV
 eigen-energy convergence tolerance             : 0.1081E-09   eV
 max force / atom convergence tol.              : ignored
 convergence tolerance window                   :          3   cycles
 max. number of SCF cycles                      :         30
 number of fixed-spin iterations                :         10
 smearing scheme                                : Gaussian
 smearing width                                 : 0.5000E-01   eV
 Fermi energy convergence tolerance             : 0.2721E-13   eV
 periodic dipole correction                     : NONE

 ************************** Density Mixing Parameters **************************
  
 density-mixing scheme                          : Pulay
 max. length of mixing history                  :         20
 charge density mixing amplitude                : 0.8000    
 cut-off energy for mixing                      :  800.0       eV
 charge density mixing g-vector                 :  1.500       1/A

 *********************** Population Analysis Parameters ************************
  
 Population analysis with cutoff                :  3.000       A
 Population analysis output                     : summary and pdos components

 ****************************** Phonon Parameters ******************************
  
 phonon calculation method                      : finite displacement
 finite displacement amplitude                  : 0.1000E-01   A
 fine phonon calculation method                 : interpolation
 non-periodic force constant method             : Weighted cumulant sum
 force constant cutoff scale factor             :     1.0000
 LO/TO splitting term                           : included
 acoustic phonon sum rule                       : correct D(q) in recip-space
 Born effective charges                         : calculated
 Born charge sum rule                           : explicitly enforced
 Raman intensities                              : not calculated
 phonon extra output                            : real-space force constants
 phonon k-points                                : use reduced set
 phonon DOS                                     : not calculated
 no timed backups
 band convergence tolerance                     : 0.1000E-08   eV

 ******************************* Developer Code ********************************
  
 PARALLEL: kpoints=48 : ENDPARALLEL
 no_improve_wvfn

 *******************************************************************************
  

                           -------------------------------
                                      Unit Cell
                           -------------------------------
        Real Lattice(A)                      Reciprocal Lattice(1/A)
    -3.2276813     3.2276813     3.2276813       -0.000000000   0.973328014   0.973328014
     3.2276813    -3.2276813     3.2276813        0.973328014  -0.000000000   0.973328014
     3.2276813     3.2276813    -3.2276813        0.973328014   0.973328014  -0.000000000

                       Lattice parameters(A)       Cell Angles
                    a =      5.590508          alpha =  109.471221
                    b =      5.590508          beta  =  109.471221
                    c =      5.590508          gamma =  109.471221

                       Current cell volume =           134.502990       A**3
                                   density =             2.536487   AMU/A**3
                                           =             4.211936     g/cm^3

                           -------------------------------
                                     Cell Contents
                           -------------------------------
                         Total number of ions in cell =    8
                      Total number of species in cell =    2
                        Max number of any one species =    6

            xxxxxxxxxxxxxxxxxxxxxxxxxxxxxxxxxxxxxxxxxxxxxxxxxxxxxxxxxxxx
            x  Element    Atom        Fractional coordinates of atoms  x
            x            Number           u          v          w      x
            x----------------------------------------------------------x
            x  Al           1         0.000000   0.000000   0.000000   x 
            x  Al           2         0.000000   0.000000   0.500000   x 
            x  Ti           1         0.000000   0.500000   0.000000   x 
            x  Ti           2         0.000000   0.500000   0.500000   x 
            x  Ti           3         0.500000   0.000000   0.000000   x 
            x  Ti           4         0.500000   0.000000   0.500000   x 
            x  Ti           5         0.500000   0.500000   0.000000   x 
            x  Ti           6         0.500000   0.500000   0.500000   x 
            xxxxxxxxxxxxxxxxxxxxxxxxxxxxxxxxxxxxxxxxxxxxxxxxxxxxxxxxxxxx


                         No user defined ionic velocities

                           -------------------------------
                                   Details of Species
                           -------------------------------

                               Mass of species in AMU
                                    Al   26.9815400
                                    Ti   47.8670000

                          Electric Quadrupole Moment (Barn)
                                    Al    0.1466000 Isotope 27
                                    Ti    0.3020000 Isotope 47

                          Files used for pseudopotentials:
                                    Al 3|2.2|2.2|1.4|4|5|5|30:31:32U2U2
                                    Ti 3|1.8|9|10|11|30U:40:31:32(qc=5.5)

                           -------------------------------
                              k-Points For BZ Sampling
                           -------------------------------
                       MP grid size for SCF calculation is 11 11 11
                            with an offset of   0.000  0.000  0.000
                       Number of kpoints used =           146

                           -------------------------------
                               Symmetry and Constraints
                           -------------------------------

                      Cell is a supercell containing 2 primitive cells
                      Maximum deviation from symmetry =  0.00000         ANG

                      Number of symmetry operations   =          24
                      Number of ionic constraints     =           3
                      Point group of crystal =    20: D3d, -3m, -3 2/m
                      Space group of crystal =   166: R-3m, -R 3 2"

             Set iprint > 1 for details on symmetry rotations/translations

                         Centre of mass is constrained
             Set iprint > 1 for details of linear ionic constraints

                         Number of cell constraints= 2
                         Cell constraints are:  1 1 3 4 4 6

                         External pressure/stress (GPa)
                          0.00000   0.00000   0.00000
                                    0.00000   0.00000
                                              0.00000
 
+---------------- MEMORY AND SCRATCH DISK ESTIMATES PER PROCESS --------------+
|                                                     Memory          Disk    |
| Baseline code, static data and system overhead      591.0 MB         0.0 MB |
| BLAS internal memory storage                          0.0 MB         0.0 MB |
| Model and support data                             1117.9 MB         0.0 MB |
| Electronic energy minimisation requirements          59.4 MB         0.0 MB |
| Force calculation requirements                       48.2 MB         0.0 MB |
| Stress calculation requirements                      53.1 MB         0.0 MB |
|                                               ----------------------------- |
| Approx. total storage required per process         1768.2 MB         0.0 MB |
|                                                                             |
| Requirements will fluctuate during execution and may exceed these estimates |
+-----------------------------------------------------------------------------+
Calculating finite basis set correction with  3 cut-off energies.
Calculating total energy with cut-off of  790.000 eV.
------------------------------------------------------------------------ <-- SCF
SCF loop      Energy           Fermi           Energy gain       Timer   <-- SCF
                               energy          per atom          (sec)   <-- SCF
------------------------------------------------------------------------ <-- SCF
Initial  -8.60986294E+003  0.00000000E+000                        17.68  <-- SCF
      1  -9.48650032E+003  1.06706175E+001   1.09579672E+002      21.72  <-- SCF
      2  -9.77422780E+003  8.40894786E+000   3.59659351E+001      24.50  <-- SCF
      3  -9.78685644E+003  8.15441744E+000   1.57858026E+000      27.17  <-- SCF
      4  -9.78631707E+003  7.52178653E+000  -6.74213135E-002      33.28  <-- SCF
      5  -9.78584563E+003  7.92204909E+000  -5.89293385E-002      39.38  <-- SCF
      6  -9.78582494E+003  7.84557235E+000  -2.58713386E-003      45.56  <-- SCF
      7  -9.78582483E+003  7.84493919E+000  -1.36606526E-005      52.12  <-- SCF
      8  -9.78582483E+003  7.84460337E+000   1.18750799E-007      58.37  <-- SCF
      9  -9.78582483E+003  7.84464397E+000   7.87759908E-009      64.66  <-- SCF
     10  -9.78582483E+003  7.84462749E+000  -1.80587525E-010      70.19  <-- SCF
     11  -9.78582483E+003  7.84463765E+000  -5.27841482E-011      75.30  <-- SCF
------------------------------------------------------------------------ <-- SCF
 
Final energy, E             =  -9785.806172377     eV
Final free energy (E-TS)    =  -9785.824827708     eV
(energies not corrected for finite basis set)
 
NB est. 0K energy (E-0.5TS)      =  -9785.815500042     eV
 
Calculating total energy with cut-off of  795.000 eV.
------------------------------------------------------------------------ <-- SCF
SCF loop      Energy           Fermi           Energy gain       Timer   <-- SCF
                               energy          per atom          (sec)   <-- SCF
------------------------------------------------------------------------ <-- SCF
Initial  -9.78580617E+003  0.00000000E+000                        83.77  <-- SCF
      1  -9.78582495E+003  7.84463036E+000   2.34747673E-003      86.85  <-- SCF
      2  -9.78582495E+003  7.84463036E+000   2.21442069E-009      92.59  <-- SCF
      3  -9.78582495E+003  7.84464094E+000   3.24477500E-009      97.63  <-- SCF
      4  -9.78582495E+003  7.84461778E+000   2.30084748E-010     102.69  <-- SCF
      5  -9.78582495E+003  7.84467768E+000   9.43927514E-010     107.99  <-- SCF
      6  -9.78582495E+003  7.84452780E+000   4.85382145E-009     114.06  <-- SCF
      7  -9.78582495E+003  7.84464905E+000  -5.79175516E-009     119.95  <-- SCF
      8  -9.78582495E+003  7.84463306E+000  -1.16975859E-010     124.94  <-- SCF
      9  -9.78582495E+003  7.84463273E+000   4.06031909E-012     129.91  <-- SCF
------------------------------------------------------------------------ <-- SCF
 
Final energy, E             =  -9785.806298015     eV
Final free energy (E-TS)    =  -9785.824953373     eV
(energies not corrected for finite basis set)
 
NB est. 0K energy (E-0.5TS)      =  -9785.815625694     eV
 
Calculating total energy with cut-off of  800.000 eV.
------------------------------------------------------------------------ <-- SCF
SCF loop      Energy           Fermi           Energy gain       Timer   <-- SCF
                               energy          per atom          (sec)   <-- SCF
------------------------------------------------------------------------ <-- SCF
Initial  -9.78580630E+003  0.00000000E+000                       138.10  <-- SCF
      1  -9.78582507E+003  7.84462601E+000   2.34636330E-003     141.12  <-- SCF
      2  -9.78582507E+003  7.84462601E+000   2.01933203E-009     146.73  <-- SCF
      3  -9.78582507E+003  7.84463632E+000   2.95842583E-009     151.64  <-- SCF
      4  -9.78582507E+003  7.84461434E+000   2.01469166E-010     156.62  <-- SCF
      5  -9.78582507E+003  7.84467129E+000   8.47639947E-010     161.79  <-- SCF
      6  -9.78582507E+003  7.84452862E+000   4.40931318E-009     167.74  <-- SCF
      7  -9.78582507E+003  7.84464550E+000  -5.23046438E-009     173.61  <-- SCF
      8  -9.78582507E+003  7.84462892E+000  -1.14075632E-010     178.59  <-- SCF
      9  -9.78582507E+003  7.84462851E+000   1.93348528E-013     183.53  <-- SCF
------------------------------------------------------------------------ <-- SCF
 
Final energy, E             =  -9785.806414661     eV
Final free energy (E-TS)    =  -9785.825070101     eV
(energies not corrected for finite basis set)
 
NB est. 0K energy (E-0.5TS)      =  -9785.815742381     eV
 
 For future reference: finite basis dEtot/dlog(Ecut) =      -0.019170eV
 Total energy corrected for finite basis set =   -9785.825071 eV
 ??????????????????????????????????????????????????????????????????????????????? 
     WARNING: Calculation of Born effective charges and IR intensities is not    
              implemented for ultrasoft pseudopotentials.                        
              Parameter CALCULATE_BORN_CHARGES changed to .FALSE.                
 ??????????????????????????????????????????????????????????????????????????????? 
 ??????????????????????????????????????????????????????????????????????????????? 
     WARNING: Calculation of LO/TO splitting is not implemented for ultrasoft    
              pseudopotentials.                                                  
              Parameter PHONON_CALC_LO_TO_SPLITTING changed to .FALSE.           
 ??????????????????????????????????????????????????????????????????????????????? 

 Phonon supercell    1 (of 3)      [  1  0  0; -1 -1 -1;  0  1 -1]:     192.38s
 -------------------------------------------------------------------------------
  Parallel strategy changed for perturbation using 165 k-points
  Data is distributed by G-vector(4-way) and k-point(48-way) and band(1-way)
  +---------------- MEMORY AND SCRATCH DISK ESTIMATES PER PROCESS --------------+
  |                                                     Memory          Disk    |
  | Baseline code, static data and system overhead      591.0 MB         0.0 MB |
  | BLAS internal memory storage                          0.0 MB         0.0 MB |
  | Model and support data                             1117.9 MB         0.0 MB |
  | Finite displacement phonon requirements             189.5 MB         0.0 MB |
  |                                               ----------------------------- |
  | Approx. total storage required per process         1898.4 MB         0.0 MB |
  |                                                                             |
  | Requirements will fluctuate during execution and may exceed these estimates |
  +-----------------------------------------------------------------------------+
 Perturbation    1 (of    7): Al    1 X at q=( 0.000, 0.000, 0.000):    481.29s
  Parallel strategy changed for perturbation using 165 k-points
  Data is distributed by G-vector(64-way) and k-point(3-way) and band(1-way)
 Perturbation    2 (of    7): Al    1 Y at q=( 0.000, 0.000, 0.000):   1514.45s
  Parallel strategy changed for perturbation using 300 k-points
  Data is distributed by G-vector(4-way) and k-point(48-way) and band(1-way)
  +---------------- MEMORY AND SCRATCH DISK ESTIMATES PER PROCESS --------------+
  |                                                     Memory          Disk    |
  | Baseline code, static data and system overhead      591.0 MB         0.0 MB |
  | BLAS internal memory storage                          0.0 MB         0.0 MB |
  | Model and support data                             1117.9 MB         0.0 MB |
  | Finite displacement phonon requirements             239.4 MB         0.0 MB |
  |                                               ----------------------------- |
  | Approx. total storage required per process         1948.3 MB         0.0 MB |
  |                                                                             |
  | Requirements will fluctuate during execution and may exceed these estimates |
  +-----------------------------------------------------------------------------+
 Perturbation    3 (of    7): Ti    1 X at q=( 0.000, 0.000, 0.000):   2201.06s
  Parallel strategy changed for perturbation using 165 k-points
  Data is distributed by G-vector(64-way) and k-point(3-way) and band(1-way)
 Perturbation    4 (of    7): Ti    1 Y at q=( 0.000, 0.000, 0.000):   3227.17s
  Parallel strategy changed for perturbation using 300 k-points
  Data is distributed by G-vector(4-way) and k-point(48-way) and band(1-way)
 Perturbation    5 (of    7): Ti    3 X at q=( 0.000, 0.000, 0.000):   4039.75s
 Perturbation    6 (of    7): Ti    3 Y at q=( 0.000, 0.000, 0.000):   4776.93s
 Perturbation    7 (of    7): Ti    3 Z at q=( 0.000, 0.000, 0.000):   5492.39s

 Phonon supercell    2 (of 3)      [  0  1  0;  0  0 -1; -2 -1 -1]:    6278.48s
 -------------------------------------------------------------------------------
  Parallel strategy changed for perturbation using 150 k-points
  Data is distributed by G-vector(4-way) and k-point(48-way) and band(1-way)

Writing analysis data to ti64_bcc_phonon_AlAl.castep_bin

Writing model to ti64_bcc_phonon_AlAl.check
 Perturbation    1 (of    7): Al    1 X at q=( 0.000, 0.000, 0.000):   6546.86s
  Parallel strategy changed for perturbation using 150 k-points
  Data is distributed by G-vector(32-way) and k-point(6-way) and band(1-way)
 Perturbation    2 (of    7): Al    1 Y at q=( 0.000, 0.000, 0.000):   6942.86s
  Parallel strategy changed for perturbation using 300 k-points
  Data is distributed by G-vector(4-way) and k-point(48-way) and band(1-way)
 Perturbation    3 (of    7): Ti    1 X at q=( 0.000, 0.000, 0.000):   7649.13s
  Parallel strategy changed for perturbation using 150 k-points
  Data is distributed by G-vector(32-way) and k-point(6-way) and band(1-way)
 Perturbation    4 (of    7): Ti    1 Y at q=( 0.000, 0.000, 0.000):   8045.18s
  Parallel strategy changed for perturbation using 300 k-points
  Data is distributed by G-vector(4-way) and k-point(48-way) and band(1-way)
 Perturbation    5 (of    7): Ti    3 X at q=( 0.000, 0.000, 0.000):   8855.93s
 Perturbation    6 (of    7): Ti    3 Y at q=( 0.000, 0.000, 0.000):   9572.21s
 Perturbation    7 (of    7): Ti    3 Z at q=( 0.000, 0.000, 0.000):  10361.56s

 Phonon supercell    3 (of 3)      [  1  0  1;  0  1  1; -1 -1  0]:   11147.23s
 -------------------------------------------------------------------------------
  Parallel strategy changed for perturbation using 60 k-points
  Data is distributed by G-vector(4-way) and k-point(48-way) and band(1-way)

Writing analysis data to ti64_bcc_phonon_AlAl.castep_bin

Writing model to ti64_bcc_phonon_AlAl.check
 Perturbation    1 (of    3): Al    1 X at q=( 0.000, 0.000, 0.000):  11282.97s
  Parallel strategy changed for perturbation using 144 k-points
  Data is distributed by G-vector(4-way) and k-point(48-way) and band(1-way)
 Perturbation    2 (of    3): Ti    1 X at q=( 0.000, 0.000, 0.000):  11683.30s
 Perturbation    3 (of    3): Ti    1 Y at q=( 0.000, 0.000, 0.000):  12091.16s
  Parallel strategy changed for perturbation using 256 k-points
  Data is distributed by G-vector(4-way) and k-point(48-way) and band(1-way)
 %%%%%%%%%%%%%%%%%%%%%%%%%%%%%%%%%%%%%%%%%%%%%%%%%%%%%%%%%%%%%%%%%%%%%%%%%%%%%%%%%%%%%%%%%%%%%%%%%%%%%%%%%%%%%%%%%%%
            Force Constant matrix
 Ion XYZ  L          part  (eV/A**2)
 Supercell   1 at (0,0,0)        0.000 A                             
   1   1          6.510298         -0.485520          0.485520         -0.594771         -0.478736          0.478736
                 -0.668627          0.687396         -0.687396          0.197094          0.030429         -0.030429
                 -0.879253          0.911581          0.828226         -0.057571         -0.008321         -0.003850
                 -0.057571          0.003850          0.008321         -0.879253         -0.828226         -0.911581
   1   2         -0.485520          6.510298          0.485520         -0.478736         -0.594771          0.478736
                  0.911581         -0.879253          0.828226         -0.008321         -0.057571         -0.003850
                  0.687396         -0.668627         -0.687396          0.030429          0.197094         -0.030429
                  0.003850         -0.057571          0.008321         -0.828226         -0.879253         -0.911581
   1   3          0.485520          0.485520          6.510298          0.478736          0.478736         -0.594771
                 -0.911581          0.828226         -0.879253          0.008321         -0.003850         -0.057571
                  0.828226         -0.911581         -0.879253         -0.003850          0.008321         -0.057571
                 -0.030429         -0.030429          0.197094         -0.687396         -0.687396         -0.668627
   2   1         -0.594771         -0.478736          0.478736          6.510298         -0.485520          0.485520
                  0.015097          0.025615         -0.025615         -0.668627          0.687396         -0.687396
                 -0.085798          0.000394          0.065283         -0.879253          0.911581          0.828226
                 -0.000955          0.022217          0.016464         -0.057571          0.003850          0.008321
   2   2         -0.478736         -0.594771          0.478736         -0.485520          6.510298          0.485520
                  0.000394         -0.085798          0.065283          0.911581         -0.879253          0.828226
                  0.025615          0.015097         -0.025615          0.687396         -0.668627         -0.687396
                  0.022217         -0.000955          0.016464          0.003850         -0.057571          0.008321
   2   3          0.478736          0.478736         -0.594771          0.485520          0.485520          6.510298
                 -0.000394          0.065283         -0.085798         -0.911581          0.828226         -0.879253
                  0.065283         -0.000394         -0.085798          0.828226         -0.911581         -0.879253
                  0.065042          0.065042          0.005456         -0.030429         -0.030429          0.197094
   3   1         -0.668627          0.911581         -0.911581          0.015097          0.000394         -0.000394
                  4.986569         -0.172610          0.172610         -0.690095         -0.430638          0.430638
                 -0.050447          0.025304         -0.148291         -0.044195          0.005318         -0.003808
                 -0.665863          0.501819          0.759863         -0.111968         -0.297282         -0.042077
   3   2          0.687396         -0.879253          0.828226          0.025615         -0.085798          0.065283
                 -0.172610          4.416309         -0.622506         -0.430638         -0.424369          0.488610
                  0.131536         -0.050447         -0.009199          0.088684         -0.058726          0.048940
                  0.640725         -0.364273         -0.501819          0.093837          0.874241          0.297282
   3   3         -0.687396          0.828226         -0.879253         -0.025615          0.065283         -0.085798
                  0.172610         -0.622506          4.416309          0.430638          0.488610         -0.424369
                 -0.009199         -0.148291         -0.073515         -0.039100          0.096289         -0.060358
                  0.825148         -0.640725         -0.665863          0.128707         -0.093837         -0.111968
   4   1          0.197094         -0.008321          0.008321         -0.668627          0.911581         -0.911581
                 -0.690095         -0.430638          0.430638          4.986569         -0.172610          0.172610
                 -0.058726          0.005318          0.096289         -0.050447          0.025304         -0.148291
                 -0.154146          0.044868          0.176078         -0.665863          0.501819          0.759863
   4   2          0.030429         -0.057571         -0.003850          0.687396         -0.879253          0.828226
                 -0.430638         -0.424369          0.488610         -0.172610          4.416309         -0.622506
                  0.088684         -0.044195         -0.039100          0.131536         -0.050447         -0.009199
                  0.015789          0.301292         -0.044868          0.640725         -0.364273         -0.501819
   4   3         -0.030429         -0.003850         -0.057571         -0.687396          0.828226         -0.879253
                  0.430638          0.488610         -0.424369          0.172610         -0.622506          4.416309
                  0.048940         -0.003808         -0.060358         -0.009199         -0.148291         -0.073515
                  0.213844         -0.015789         -0.154146          0.825148         -0.640725         -0.665863
   5   1         -0.879253          0.687396          0.828226         -0.085798          0.025615          0.065283
                 -0.050447          0.131536         -0.009199         -0.058726          0.088684          0.048940
                  4.416309         -0.172610         -0.622506         -0.424369         -0.430638          0.488610
                 -0.364273          0.640725         -0.501819          0.874241          0.093837          0.297282
   5   2          0.911581         -0.668627         -0.911581          0.000394          0.015097         -0.000394
                  0.025304         -0.050447         -0.148291          0.005318         -0.044195         -0.003808
                 -0.172610          4.986569          0.172610         -0.430638         -0.690095          0.430638
                  0.501819         -0.665863          0.759863         -0.297282         -0.111968         -0.042077
   5   3          0.828226         -0.687396         -0.879253          0.065283         -0.025615         -0.085798
                 -0.148291         -0.009199         -0.073515          0.096289         -0.039100         -0.060358
                 -0.622506          0.172610          4.416309          0.488610          0.430638         -0.424369
                 -0.640725          0.825148         -0.665863         -0.093837          0.128707         -0.111968
   6   1         -0.057571          0.030429         -0.003850         -0.879253          0.687396          0.828226
                 -0.044195          0.088684         -0.039100         -0.050447          0.131536         -0.009199
                 -0.424369         -0.430638          0.488610          4.416309         -0.172610         -0.622506
                  0.301292          0.015789         -0.044868         -0.364273          0.640725         -0.501819
   6   2         -0.008321          0.197094          0.008321          0.911581         -0.668627         -0.911581
                  0.005318         -0.058726          0.096289          0.025304         -0.050447         -0.148291
                 -0.430638         -0.690095          0.430638         -0.172610          4.986569          0.172610
                  0.044868         -0.154146          0.176078          0.501819         -0.665863          0.759863
   6   3         -0.003850         -0.030429         -0.057571          0.828226         -0.687396         -0.879253
                 -0.003808          0.048940         -0.060358         -0.148291         -0.009199         -0.073515
                  0.488610          0.430638         -0.424369         -0.622506          0.172610          4.416309
                 -0.015789          0.213844         -0.154146         -0.640725          0.825148         -0.665863
   7   1         -0.057571          0.003850         -0.030429         -0.000955          0.022217          0.065042
                 -0.665863          0.640725          0.825148         -0.154146          0.015789          0.213844
                 -0.364273          0.501819         -0.640725          0.301292          0.044868         -0.015789
                  4.416309          0.622506          0.172610         -0.424369         -0.488610          0.430638
   7   2          0.003850         -0.057571         -0.030429          0.022217         -0.000955          0.065042
                  0.501819         -0.364273         -0.640725          0.044868          0.301292         -0.015789
                  0.640725         -0.665863          0.825148          0.015789         -0.154146          0.213844
                  0.622506          4.416309          0.172610         -0.488610         -0.424369          0.430638
   7   3          0.008321          0.008321          0.197094          0.016464          0.016464          0.005456
                  0.759863         -0.501819         -0.665863          0.176078         -0.044868         -0.154146
                 -0.501819          0.759863         -0.665863         -0.044868          0.176078         -0.154146
                  0.172610          0.172610          4.986569          0.430638          0.430638         -0.690095
   8   1         -0.879253         -0.828226         -0.687396         -0.057571          0.003850         -0.030429
                 -0.111968          0.093837          0.128707         -0.665863          0.640725          0.825148
                  0.874241         -0.297282         -0.093837         -0.364273          0.501819         -0.640725
                 -0.424369         -0.488610          0.430638          4.416309          0.622506          0.172610
   8   2         -0.828226         -0.879253         -0.687396          0.003850         -0.057571         -0.030429
                 -0.297282          0.874241         -0.093837          0.501819         -0.364273         -0.640725
                  0.093837         -0.111968          0.128707          0.640725         -0.665863          0.825148
                 -0.488610         -0.424369          0.430638          0.622506          4.416309          0.172610
   8   3         -0.911581         -0.911581         -0.668627          0.008321          0.008321          0.197094
                 -0.042077          0.297282         -0.111968          0.759863         -0.501819         -0.665863
                  0.297282         -0.042077         -0.111968         -0.501819          0.759863         -0.665863
                  0.430638          0.430638         -0.690095          0.172610          0.172610          4.986569

 Supercell   2 at (1,0,0)        5.591 A                             
   1   1         -0.003653          0.030427          0.018518          0.016678         -0.012913         -0.008098
                 -0.009081         -0.029967          0.016308          0.082113         -0.003680          0.003680
                 -0.879253          0.911581          0.828226         -0.085798          0.000394          0.065283
                 -0.099094          0.119559          0.013658         -0.048583         -0.004263          0.004223
   1   2          0.030427         -0.031022         -0.030427         -0.012913          0.008449          0.012913
                  0.002260          0.032684         -0.024743         -0.013658         -0.099094         -0.119559
                  0.687396         -0.668627         -0.687396          0.025615          0.015097         -0.025615
                  0.119559         -0.099094          0.013658          0.024743          0.032684         -0.002260
   1   3          0.018518         -0.030427         -0.003653         -0.008098          0.012913          0.016678
                  0.004223          0.004263         -0.048583          0.013658         -0.119559         -0.099094
                  0.828226         -0.911581         -0.879253          0.065283         -0.000394         -0.085798
                  0.003680          0.003680          0.082113          0.016308          0.029967         -0.009081
   2   1          0.016678         -0.012913         -0.008098         -0.003653          0.030427          0.018518
                 -0.001016         -0.003032          0.003032         -0.009081         -0.029967          0.016308
                 -0.057571         -0.008321         -0.003850         -0.879253          0.911581          0.828226
                  0.032684          0.024743         -0.002260         -0.099094          0.119559          0.013658
   2   2         -0.012913          0.008449          0.012913          0.030427         -0.031022         -0.030427
                 -0.023409         -0.019125          0.000774          0.002260          0.032684         -0.024743
                  0.030429          0.197094         -0.030429          0.687396         -0.668627         -0.687396
                 -0.004263         -0.048583          0.004223          0.119559         -0.099094          0.013658
   2   3         -0.008098          0.012913          0.016678          0.018518         -0.030427         -0.003653
                  0.023409          0.000774         -0.019125          0.004223          0.004263         -0.048583
                 -0.003850          0.008321         -0.057571          0.828226         -0.911581         -0.879253
                  0.029967          0.016308         -0.009081          0.003680          0.003680          0.082113
   3   1         -0.009081          0.002260          0.004223         -0.001016         -0.023409          0.023409
                  0.287252         -0.245296         -0.092779          0.084167          0.041585         -0.069650
                 -0.111968          0.042077          0.297282          0.083312          0.168768          0.003902
                 -0.665863          0.501819          0.759863         -0.154146          0.044868          0.176078
   3   2         -0.029967          0.032684          0.004263         -0.003032         -0.019125          0.000774
                 -0.245296         -0.045946          0.123255          0.041585         -0.162721         -0.021928
                 -0.128707         -0.111968         -0.093837          0.151382          0.083312          0.070779
                  0.640725         -0.364273         -0.501819          0.015789          0.301292         -0.044868
   3   3          0.016308         -0.024743         -0.048583          0.003032          0.000774         -0.019125
                 -0.092779          0.123255          0.131255         -0.069650         -0.021928          0.118422
                 -0.093837          0.297282          0.874241          0.070779          0.003902         -0.067836
                  0.825148         -0.640725         -0.665863          0.213844         -0.015789         -0.154146
   4   1          0.082113         -0.013658          0.013658         -0.009081          0.002260          0.004223
                  0.084167          0.041585         -0.069650          0.287252         -0.245296         -0.092779
                 -0.665863         -0.759863         -0.501819         -0.111968          0.042077          0.297282
                 -0.111968         -0.297282         -0.042077         -0.665863          0.501819          0.759863
   4   2         -0.003680         -0.099094         -0.119559         -0.029967          0.032684          0.004263
                  0.041585         -0.162721         -0.021928         -0.245296         -0.045946          0.123255
                 -0.825148         -0.665863         -0.640725         -0.128707         -0.111968         -0.093837
                  0.093837          0.874241          0.297282          0.640725         -0.364273         -0.501819
   4   3          0.003680         -0.119559         -0.099094          0.016308         -0.024743         -0.048583
                 -0.069650         -0.021928          0.118422         -0.092779          0.123255          0.131255
                 -0.640725         -0.501819         -0.364273         -0.093837          0.297282          0.874241
                  0.128707         -0.093837         -0.111968          0.825148         -0.640725         -0.665863
   5   1         -0.879253          0.687396          0.828226         -0.057571          0.030429         -0.003850
                 -0.111968         -0.128707         -0.093837         -0.665863         -0.825148         -0.640725
                  0.187961         -0.159600         -0.185460          0.014125          0.033269          0.060025
                 -0.060358          0.039100          0.096289         -0.073515          0.009199         -0.148291
   5   2          0.911581         -0.668627         -0.911581         -0.008321          0.197094          0.008321
                  0.042077         -0.111968          0.297282         -0.759863         -0.665863         -0.501819
                 -0.159600          0.127376          0.159600          0.033269         -0.082863         -0.033269
                  0.003808         -0.044195         -0.005318          0.148291         -0.050447         -0.025304
   5   3          0.828226         -0.687396         -0.879253         -0.003850         -0.030429         -0.057571
                  0.297282         -0.093837          0.874241         -0.501819         -0.640725         -0.364273
                 -0.185460          0.159600          0.187961          0.060025         -0.033269          0.014125
                  0.048940         -0.088684         -0.058726         -0.009199         -0.131536         -0.050447
   6   1         -0.085798          0.025615          0.065283         -0.879253          0.687396          0.828226
                  0.083312          0.151382          0.070779         -0.111968         -0.128707         -0.093837
                  0.014125          0.033269          0.060025          0.187961         -0.159600         -0.185460
                 -0.035911         -0.030427         -0.037438         -0.060358          0.039100          0.096289
   6   2          0.000394          0.015097         -0.000394          0.911581         -0.668627         -0.911581
                  0.168768          0.083312          0.003902          0.042077         -0.111968          0.297282
                  0.033269         -0.082863         -0.033269         -0.159600          0.127376          0.159600
                  0.037438          0.030770         -0.061767          0.003808         -0.044195         -0.005318
   6   3          0.065283         -0.025615         -0.085798          0.828226         -0.687396         -0.879253
                  0.003902          0.070779         -0.067836          0.297282         -0.093837          0.874241
                  0.060025         -0.033269          0.014125         -0.185460          0.159600          0.187961
                  0.030427          0.007181          0.030770          0.048940         -0.088684         -0.058726
   7   1         -0.099094          0.119559          0.003680          0.032684         -0.004263          0.029967
                 -0.665863          0.640725          0.825148         -0.111968          0.093837          0.128707
                 -0.060358          0.003808          0.048940         -0.035911          0.037438          0.030427
                  0.131255         -0.123255         -0.092779          0.118422          0.021928         -0.069650
   7   2          0.119559         -0.099094          0.003680          0.024743         -0.048583          0.016308
                  0.501819         -0.364273         -0.640725         -0.297282          0.874241         -0.093837
                  0.039100         -0.044195         -0.088684         -0.030427          0.030770          0.007181
                 -0.123255         -0.045946          0.245296          0.021928         -0.162721         -0.041585
   7   3          0.013658          0.013658          0.082113         -0.002260          0.004223         -0.009081
                  0.759863         -0.501819         -0.665863         -0.042077          0.297282         -0.111968
                  0.096289         -0.005318         -0.058726         -0.037438         -0.061767          0.030770
                 -0.092779          0.245296          0.287252         -0.069650         -0.041585          0.084167
   8   1         -0.048583          0.024743          0.016308         -0.099094          0.119559          0.003680
                 -0.154146          0.015789          0.213844         -0.665863          0.640725          0.825148
                 -0.073515          0.148291         -0.009199         -0.060358          0.003808          0.048940
                  0.118422          0.021928         -0.069650          0.131255         -0.123255         -0.092779
   8   2         -0.004263          0.032684          0.029967          0.119559         -0.099094          0.003680
                  0.044868          0.301292         -0.015789          0.501819         -0.364273         -0.640725
                  0.009199         -0.050447         -0.131536          0.039100         -0.044195         -0.088684
                  0.021928         -0.162721         -0.041585         -0.123255         -0.045946          0.245296
   8   3          0.004223         -0.002260         -0.009081          0.013658          0.013658          0.082113
                  0.176078         -0.044868         -0.154146          0.759863         -0.501819         -0.665863
                 -0.148291         -0.025304         -0.050447          0.096289         -0.005318         -0.058726
                 -0.069650         -0.041585          0.084167         -0.092779          0.245296          0.287252

 Supercell   3 at (0,1,0)        5.591 A                             
   1   1         -0.031022          0.030427         -0.030427          0.008449         -0.012913          0.012913
                 -0.668627          0.687396         -0.687396          0.015097          0.025615         -0.025615
                  0.032684          0.002260         -0.024743         -0.099094         -0.013658         -0.119559
                 -0.099094          0.119559          0.013658          0.032684          0.024743         -0.002260
   1   2          0.030427         -0.003653          0.018518         -0.012913          0.016678         -0.008098
                  0.911581         -0.879253          0.828226          0.000394         -0.085798          0.065283
                 -0.029967         -0.009081          0.016308         -0.003680          0.082113          0.003680
                  0.119559         -0.099094          0.013658         -0.004263         -0.048583          0.004223
   1   3         -0.030427          0.018518         -0.003653          0.012913         -0.008098          0.016678
                 -0.911581          0.828226         -0.879253         -0.000394          0.065283         -0.085798
                  0.004263          0.004223         -0.048583         -0.119559          0.013658         -0.099094
                  0.003680          0.003680          0.082113          0.029967          0.016308         -0.009081
   2   1          0.008449         -0.012913          0.012913         -0.031022          0.030427         -0.030427
                  0.197094          0.030429         -0.030429         -0.668627          0.687396         -0.687396
                 -0.019125         -0.023409          0.000774          0.032684          0.002260         -0.024743
                 -0.048583         -0.004263          0.004223         -0.099094          0.119559          0.013658
   2   2         -0.012913          0.016678         -0.008098          0.030427         -0.003653          0.018518
                 -0.008321         -0.057571         -0.003850          0.911581         -0.879253          0.828226
                 -0.003032         -0.001016          0.003032         -0.029967         -0.009081          0.016308
                  0.024743          0.032684         -0.002260          0.119559         -0.099094          0.013658
   2   3          0.012913         -0.008098          0.016678         -0.030427          0.018518         -0.003653
                  0.008321         -0.003850         -0.057571         -0.911581          0.828226         -0.879253
                  0.000774          0.023409         -0.019125          0.004263          0.004223         -0.048583
                  0.016308          0.029967         -0.009081          0.003680          0.003680          0.082113
   3   1         -0.668627          0.911581         -0.911581          0.197094         -0.008321          0.008321
                  0.127376         -0.159600          0.159600         -0.082863          0.033269         -0.033269
                 -0.111968          0.042077          0.297282         -0.665863         -0.759863         -0.501819
                 -0.044195          0.003808         -0.005318         -0.050447          0.148291         -0.025304
   3   2          0.687396         -0.879253          0.828226          0.030429         -0.057571         -0.003850
                 -0.159600          0.187961         -0.185460          0.033269          0.014125          0.060025
                 -0.128707         -0.111968         -0.093837         -0.825148         -0.665863         -0.640725
                  0.039100         -0.060358          0.096289          0.009199         -0.073515         -0.148291
   3   3         -0.687396          0.828226         -0.879253         -0.030429         -0.003850         -0.057571
                  0.159600         -0.185460          0.187961         -0.033269          0.060025          0.014125
                 -0.093837          0.297282          0.874241         -0.640725         -0.501819         -0.364273
                 -0.088684          0.048940         -0.058726         -0.131536         -0.009199         -0.050447
   4   1          0.015097          0.000394         -0.000394         -0.668627          0.911581         -0.911581
                 -0.082863          0.033269         -0.033269          0.127376         -0.159600          0.159600
                  0.083312          0.168768          0.003902         -0.111968          0.042077          0.297282
                  0.030770          0.037438         -0.061767         -0.044195          0.003808         -0.005318
   4   2          0.025615         -0.085798          0.065283          0.687396         -0.879253          0.828226
                  0.033269          0.014125          0.060025         -0.159600          0.187961         -0.185460
                  0.151382          0.083312          0.070779         -0.128707         -0.111968         -0.093837
                 -0.030427         -0.035911         -0.037438          0.039100         -0.060358          0.096289
   4   3         -0.025615          0.065283         -0.085798         -0.687396          0.828226         -0.879253
                 -0.033269          0.060025          0.014125          0.159600         -0.185460          0.187961
                  0.070779          0.003902         -0.067836         -0.093837          0.297282          0.874241
                  0.007181          0.030427          0.030770         -0.088684          0.048940         -0.058726
   5   1          0.032684         -0.029967          0.004263         -0.019125         -0.003032          0.000774
                 -0.111968         -0.128707         -0.093837          0.083312          0.151382          0.070779
                 -0.045946         -0.245296          0.123255         -0.162721          0.041585         -0.021928
                 -0.364273          0.640725         -0.501819          0.301292          0.015789         -0.044868
   5   2          0.002260         -0.009081          0.004223         -0.023409         -0.001016          0.023409
                  0.042077         -0.111968          0.297282          0.168768          0.083312          0.003902
                 -0.245296          0.287252         -0.092779          0.041585          0.084167         -0.069650
                  0.501819         -0.665863          0.759863          0.044868         -0.154146          0.176078
   5   3         -0.024743          0.016308         -0.048583          0.000774          0.003032         -0.019125
                  0.297282         -0.093837          0.874241          0.003902          0.070779         -0.067836
                  0.123255         -0.092779          0.131255         -0.021928         -0.069650          0.118422
                 -0.640725          0.825148         -0.665863         -0.015789          0.213844         -0.154146
   6   1         -0.099094         -0.003680         -0.119559          0.032684         -0.029967          0.004263
                 -0.665863         -0.825148         -0.640725         -0.111968         -0.128707         -0.093837
                 -0.162721          0.041585         -0.021928         -0.045946         -0.245296          0.123255
                  0.874241          0.093837          0.297282         -0.364273          0.640725         -0.501819
   6   2         -0.013658          0.082113          0.013658          0.002260         -0.009081          0.004223
                 -0.759863         -0.665863         -0.501819          0.042077         -0.111968          0.297282
                  0.041585          0.084167         -0.069650         -0.245296          0.287252         -0.092779
                 -0.297282         -0.111968         -0.042077          0.501819         -0.665863          0.759863
   6   3         -0.119559          0.003680         -0.099094         -0.024743          0.016308         -0.048583
                 -0.501819         -0.640725         -0.364273          0.297282         -0.093837          0.874241
                 -0.021928         -0.069650          0.118422          0.123255         -0.092779          0.131255
                 -0.093837          0.128707         -0.111968         -0.640725          0.825148         -0.665863
   7   1         -0.099094          0.119559          0.003680         -0.048583          0.024743          0.016308
                 -0.044195          0.039100         -0.088684          0.030770         -0.030427          0.007181
                 -0.364273          0.501819         -0.640725          0.874241         -0.297282         -0.093837
                 -0.045946         -0.123255          0.245296         -0.162721          0.021928         -0.041585
   7   2          0.119559         -0.099094          0.003680         -0.004263          0.032684          0.029967
                  0.003808         -0.060358          0.048940          0.037438         -0.035911          0.030427
                  0.640725         -0.665863          0.825148          0.093837         -0.111968          0.128707
                 -0.123255          0.131255         -0.092779          0.021928          0.118422         -0.069650
   7   3          0.013658          0.013658          0.082113          0.004223         -0.002260         -0.009081
                 -0.005318          0.096289         -0.058726         -0.061767         -0.037438          0.030770
                 -0.501819          0.759863         -0.665863          0.297282         -0.042077         -0.111968
                  0.245296         -0.092779          0.287252         -0.041585         -0.069650          0.084167
   8   1          0.032684         -0.004263          0.029967         -0.099094          0.119559          0.003680
                 -0.050447          0.009199         -0.131536         -0.044195          0.039100         -0.088684
                  0.301292          0.044868         -0.015789         -0.364273          0.501819         -0.640725
                 -0.162721          0.021928         -0.041585         -0.045946         -0.123255          0.245296
   8   2          0.024743         -0.048583          0.016308          0.119559         -0.099094          0.003680
                  0.148291         -0.073515         -0.009199          0.003808         -0.060358          0.048940
                  0.015789         -0.154146          0.213844          0.640725         -0.665863          0.825148
                  0.021928          0.118422         -0.069650         -0.123255          0.131255         -0.092779
   8   3         -0.002260          0.004223         -0.009081          0.013658          0.013658          0.082113
                 -0.025304         -0.148291         -0.050447         -0.005318          0.096289         -0.058726
                 -0.044868          0.176078         -0.154146         -0.501819          0.759863         -0.665863
                 -0.041585         -0.069650          0.084167          0.245296         -0.092779          0.287252

 Supercell   4 at (1,1,0)        6.455 A                             
   1   1         -0.007652          0.011603          0.021592          0.016678          0.008098          0.012913
                 -0.009081         -0.029967          0.016308         -0.001016         -0.003032          0.003032
                  0.032684          0.002260         -0.024743         -0.019125         -0.023409          0.000774
                 -0.057571          0.003850          0.008321         -0.000955          0.022217          0.016464
   1   2          0.011603         -0.007652          0.021592          0.008098          0.016678          0.012913
                  0.002260          0.032684         -0.024743         -0.023409         -0.019125          0.000774
                 -0.029967         -0.009081          0.016308         -0.003032         -0.001016          0.003032
                  0.003850         -0.057571          0.008321          0.022217         -0.000955          0.016464
   1   3          0.021592          0.021592          0.083326          0.012913          0.012913          0.008449
                  0.004223          0.004263         -0.048583          0.023409          0.000774         -0.019125
                  0.004263          0.004223         -0.048583          0.000774          0.023409         -0.019125
                 -0.030429         -0.030429          0.197094          0.065042          0.065042          0.005456
   2   1          0.016678          0.008098          0.012913         -0.007652          0.011603          0.021592
                  0.082113         -0.003680          0.003680         -0.009081         -0.029967          0.016308
                 -0.099094         -0.013658         -0.119559          0.032684          0.002260         -0.024743
                 -0.879253         -0.828226         -0.911581         -0.057571          0.003850          0.008321
   2   2          0.008098          0.016678          0.012913          0.011603         -0.007652          0.021592
                 -0.013658         -0.099094         -0.119559          0.002260          0.032684         -0.024743
                 -0.003680          0.082113          0.003680         -0.029967         -0.009081          0.016308
                 -0.828226         -0.879253         -0.911581          0.003850         -0.057571          0.008321
   2   3          0.012913          0.012913          0.008449          0.021592          0.021592          0.083326
                  0.013658         -0.119559         -0.099094          0.004223          0.004263         -0.048583
                 -0.119559          0.013658         -0.099094          0.004263          0.004223         -0.048583
                 -0.687396         -0.687396         -0.668627         -0.030429         -0.030429          0.197094
   3   1         -0.009081          0.002260          0.004223          0.082113         -0.013658          0.013658
                  0.064517         -0.071343         -0.002705          0.084167          0.069650         -0.041585
                 -0.050447          0.025304         -0.148291         -0.058726          0.005318          0.096289
                 -0.044195          0.003808         -0.005318          0.030770          0.037438         -0.061767
   3   2         -0.029967          0.032684          0.004263         -0.003680         -0.099094         -0.119559
                 -0.071343         -0.043895          0.004626          0.069650          0.118422         -0.021928
                  0.131536         -0.050447         -0.009199          0.088684         -0.044195         -0.039100
                  0.039100         -0.060358          0.096289         -0.030427         -0.035911         -0.037438
   3   3          0.016308         -0.024743         -0.048583          0.003680         -0.119559         -0.099094
                 -0.002705          0.004626         -0.376537         -0.041585         -0.021928         -0.162721
                 -0.009199         -0.148291         -0.073515          0.048940         -0.003808         -0.060358
                 -0.088684          0.048940         -0.058726          0.007181          0.030427          0.030770
   4   1         -0.001016         -0.023409          0.023409         -0.009081          0.002260          0.004223
                  0.084167          0.069650         -0.041585          0.064517         -0.071343         -0.002705
                 -0.044195          0.005318         -0.003808         -0.050447          0.025304         -0.148291
                 -0.050447          0.148291         -0.025304         -0.044195          0.003808         -0.005318
   4   2         -0.003032         -0.019125          0.000774         -0.029967          0.032684          0.004263
                  0.069650          0.118422         -0.021928         -0.071343         -0.043895          0.004626
                  0.088684         -0.058726          0.048940          0.131536         -0.050447         -0.009199
                  0.009199         -0.073515         -0.148291          0.039100         -0.060358          0.096289
   4   3          0.003032          0.000774         -0.019125          0.016308         -0.024743         -0.048583
                 -0.041585         -0.021928         -0.162721         -0.002705          0.004626         -0.376537
                 -0.039100          0.096289         -0.060358         -0.009199         -0.148291         -0.073515
                 -0.131536         -0.009199         -0.050447         -0.088684          0.048940         -0.058726
   5   1          0.032684         -0.029967          0.004263         -0.099094         -0.003680         -0.119559
                 -0.050447          0.131536         -0.009199         -0.044195          0.088684         -0.039100
                 -0.043895         -0.071343          0.004626          0.118422          0.069650         -0.021928
                 -0.060358          0.039100          0.096289         -0.035911         -0.030427         -0.037438
   5   2          0.002260         -0.009081          0.004223         -0.013658          0.082113          0.013658
                  0.025304         -0.050447         -0.148291          0.005318         -0.058726          0.096289
                 -0.071343          0.064517         -0.002705          0.069650          0.084167         -0.041585
                  0.003808         -0.044195         -0.005318          0.037438          0.030770         -0.061767
   5   3         -0.024743          0.016308         -0.048583         -0.119559          0.003680         -0.099094
                 -0.148291         -0.009199         -0.073515         -0.003808          0.048940         -0.060358
                  0.004626         -0.002705         -0.376537         -0.021928         -0.041585         -0.162721
                  0.048940         -0.088684         -0.058726          0.030427          0.007181          0.030770
   6   1         -0.019125         -0.003032          0.000774          0.032684         -0.029967          0.004263
                 -0.058726          0.088684          0.048940         -0.050447          0.131536         -0.009199
                  0.118422          0.069650         -0.021928         -0.043895         -0.071343          0.004626
                 -0.073515          0.009199         -0.148291         -0.060358          0.039100          0.096289
   6   2         -0.023409         -0.001016          0.023409          0.002260         -0.009081          0.004223
                  0.005318         -0.044195         -0.003808          0.025304         -0.050447         -0.148291
                  0.069650          0.084167         -0.041585         -0.071343          0.064517         -0.002705
                  0.148291         -0.050447         -0.025304          0.003808         -0.044195         -0.005318
   6   3          0.000774          0.003032         -0.019125         -0.024743          0.016308         -0.048583
                  0.096289         -0.039100         -0.060358         -0.148291         -0.009199         -0.073515
                 -0.021928         -0.041585         -0.162721          0.004626         -0.002705         -0.376537
                 -0.009199         -0.131536         -0.050447          0.048940         -0.088684         -0.058726
   7   1         -0.057571          0.003850         -0.030429         -0.879253         -0.828226         -0.687396
                 -0.044195          0.039100         -0.088684         -0.050447          0.009199         -0.131536
                 -0.060358          0.003808          0.048940         -0.073515          0.148291         -0.009199
                 -0.049304         -0.012303         -0.071384          0.014125         -0.060025         -0.033269
   7   2          0.003850         -0.057571         -0.030429         -0.828226         -0.879253         -0.687396
                  0.003808         -0.060358          0.048940          0.148291         -0.073515         -0.009199
                  0.039100         -0.044195         -0.088684          0.009199         -0.050447         -0.131536
                 -0.012303         -0.049304         -0.071384         -0.060025          0.014125         -0.033269
   7   3          0.008321          0.008321          0.197094         -0.911581         -0.911581         -0.668627
                 -0.005318          0.096289         -0.058726         -0.025304         -0.148291         -0.050447
                  0.096289         -0.005318         -0.058726         -0.148291         -0.025304         -0.050447
                 -0.071384         -0.071384          0.118635         -0.033269         -0.033269         -0.082863
   8   1         -0.000955          0.022217          0.065042         -0.057571          0.003850         -0.030429
                  0.030770         -0.030427          0.007181         -0.044195          0.039100         -0.088684
                 -0.035911          0.037438          0.030427         -0.060358          0.003808          0.048940
                  0.014125         -0.060025         -0.033269         -0.049304         -0.012303         -0.071384
   8   2          0.022217         -0.000955          0.065042          0.003850         -0.057571         -0.030429
                  0.037438         -0.035911          0.030427          0.003808         -0.060358          0.048940
                 -0.030427          0.030770          0.007181          0.039100         -0.044195         -0.088684
                 -0.060025          0.014125         -0.033269         -0.012303         -0.049304         -0.071384
   8   3          0.016464          0.016464          0.005456          0.008321          0.008321          0.197094
                 -0.061767         -0.037438          0.030770         -0.005318          0.096289         -0.058726
                 -0.037438         -0.061767          0.030770          0.096289         -0.005318         -0.058726
                 -0.033269         -0.033269         -0.082863         -0.071384         -0.071384          0.118635

 Supercell   5 at (0,0,1)        5.591 A                             
   1   1         -0.027153         -0.023035          0.023035         -0.594771         -0.478736          0.478736
                  0.005456         -0.065042          0.065042          0.015097          0.025615         -0.025615
                 -0.000955         -0.016464         -0.022217         -0.085798          0.000394          0.065283
                 -0.085798         -0.065283         -0.000394         -0.000955          0.022217          0.016464
   1   2         -0.023035         -0.027153          0.023035         -0.478736         -0.594771          0.478736
[...]
 +    19       7.344693   b                                                   + 
 +    20       8.214274   d                                                   + 
 +    21       8.889370   b                                                   + 
 +    22       8.912187   d                                                   + 
 +    23       9.047663   c                                                   + 
 +    24       9.095795   a                                                   + 
 + .......................................................................... +
 +        Character table from group theory analysis of eigenvectors          +
 +                           Point Group =  20, D3d                           +
 + .......................................................................... +
 +  Rep  Mul |    E   m                                                       +
 +           | --------                                                       +
 + a       5 |    1  -1                                                       +
 + b       7 |    1   1                                                       +
 + c       5 |    1  -1                                                       +
 + d       7 |    1   1                                                       +
 + -------------------------------------------------------------------------- +
 +  q-pt=   55 (  0.100000  0.100000  0.400000)     0.0175438596              +
 + -------------------------------------------------------------------------- +
 +  Acoustic sum rule correction <   0.001337 THz applied                     +
 +     N      Frequency irrep.                                                + 
 +                 (THz)                                                      + 
 +                                                                            +
 +     1      -1.546800   a                                                   + 
 +     2      -0.955971   b                                                   + 
 +     3       0.536019   a                                                   + 
 +     4       1.338707   c                                                   + 
 +     5       2.540000   b                                                   + 
 +     6       2.989499   d                                                   + 
 +     7       3.026545   a                                                   + 
 +     8       3.519254   c                                                   + 
 +     9       3.541673   d                                                   + 
 +    10       4.302456   c                                                   + 
 +    11       4.682306   d                                                   + 
 +    12       5.461707   c                                                   + 
 +    13       5.515406   d                                                   + 
 +    14       5.571118   b                                                   + 
 +    15       6.550845   c                                                   + 
 +    16       6.673223   d                                                   + 
 +    17       6.742434   a                                                   + 
 +    18       6.789504   b                                                   + 
 +    19       7.353465   c                                                   + 
 +    20       7.944841   d                                                   + 
 +    21       8.952435   c                                                   + 
 +    22       8.978652   d                                                   + 
 +    23       9.116607   b                                                   + 
 +    24       9.149541   a                                                   + 
 + .......................................................................... +
 +        Character table from group theory analysis of eigenvectors          +
 +                           Point Group =  20, D3d                           +
 + .......................................................................... +
 +  Rep  Mul |    E   m                                                       +
 +           | --------                                                       +
 + a       5 |    1  -1                                                       +
 + b       5 |    1  -1                                                       +
 + c       7 |    1   1                                                       +
 + d       7 |    1   1                                                       +
 + -------------------------------------------------------------------------- +
 +  q-pt=   56 (  0.050000  0.050000  0.450000)     0.0175438596              +
 + -------------------------------------------------------------------------- +
 +  Acoustic sum rule correction <   0.001011 THz applied                     +
 +     N      Frequency irrep.                                                + 
 +                 (THz)                                                      + 
 +                                                                            +
 +     1      -1.641422   a                                                   + 
 +     2      -1.399492   b                                                   + 
 +     3      -0.507998   a                                                   + 
 +     4       1.664060   b                                                   + 
 +     5       1.962779   c                                                   + 
 +     6       2.780438   d                                                   + 
 +     7       3.765670   a                                                   + 
 +     8       3.776022   c                                                   + 
 +     9       3.794777   d                                                   + 
 +    10       4.444799   c                                                   + 
 +    11       4.604284   d                                                   + 
 +    12       5.069665   b                                                   + 
 +    13       5.354194   d                                                   + 
 +    14       5.372711   c                                                   + 
 +    15       6.677471   c                                                   + 
 +    16       6.745361   d                                                   + 
 +    17       6.811780   a                                                   + 
 +    18       6.834376   b                                                   + 
 +    19       7.374684   c                                                   + 
 +    20       7.683661   d                                                   + 
 +    21       9.009255   c                                                   + 
 +    22       9.024525   d                                                   + 
 +    23       9.159341   b                                                   + 
 +    24       9.174834   a                                                   + 
 + .......................................................................... +
 +        Character table from group theory analysis of eigenvectors          +
 +                           Point Group =  20, D3d                           +
 + .......................................................................... +
 +  Rep  Mul |    E   m                                                       +
 +           | --------                                                       +
 + a       5 |    1  -1                                                       +
 + b       5 |    1  -1                                                       +
 + c       7 |    1   1                                                       +
 + d       7 |    1   1                                                       +
 + -------------------------------------------------------------------------- +
 +  q-pt=   57 (  0.000000  0.000000  0.500000)     0.0175438596              +
 + -------------------------------------------------------------------------- +
 +  Acoustic sum rule correction <   0.001654 THz applied                     +
 +     N      Frequency irrep.                                                + 
 +                 (THz)                                                      + 
 +                                                                            +
 +     1      -1.595507   a                                                   + 
 +     2      -1.595507   a                                                   + 
 +     3       0.701281   a                                                   + 
 +     4       0.701281   a                                                   + 
 +     5       2.430588   b                                                   + 
 +     6       2.430588   b                                                   + 
 +     7       3.918898   b                                                   + 
 +     8       3.918898   b                                                   + 
 +     9       4.460589   a                                                   + 
 +    10       4.460589   a                                                   + 
 +    11       4.498901   b                                                   + 
 +    12       4.498901   b                                                   + 
 +    13       5.316659   b                                                   + 
 +    14       5.316659   b                                                   + 
 +    15       6.752430   b                                                   + 
 +    16       6.752430   b                                                   + 
 +    17       6.841644   a                                                   + 
 +    18       6.841644   a                                                   + 
 +    19       7.478559   b                                                   + 
 +    20       7.478559   b                                                   + 
 +    21       9.036127   b                                                   + 
 +    22       9.036127   b                                                   + 
 +    23       9.177969   a                                                   + 
 +    24       9.177969   a                                                   + 
 + .......................................................................... +
 +        Character table from group theory analysis of eigenvectors          +
 +                           Point Group =  20, D3d                           +
 + .......................................................................... +
 +  Rep  Mul |    E   I   2   m                                               +
 +           | ----------------                                               +
 + a       5 |    2   0   0  -2                                               +
 + b       7 |    2   0   0   2                                               +
 ==============================================================================

 ******************** Symmetrised Forces ********************
 *                                                          *
 *               Cartesian components (eV/A)                *
 * -------------------------------------------------------- *
 *                         x            y            z      *
 *                                                          *
 * Al              1      0.00000      0.00000      0.00000 *
 * Al              2      0.00000      0.00000      0.00000 *
 * Ti              1      0.00000      0.00000      0.00000 *
 * Ti              2      0.00000      0.00000      0.00000 *
 * Ti              3      0.00000      0.00000      0.00000 *
 * Ti              4      0.00000      0.00000      0.00000 *
 * Ti              5      0.00000      0.00000      0.00000 *
 * Ti              6      0.00000      0.00000      0.00000 *
 *                                                          *
 ************************************************************

 *********** Symmetrised Stress Tensor ***********
 *                                               *
 *          Cartesian components (GPa)           *
 * --------------------------------------------- *
 *             x             y             z     *
 *                                               *
 *  x      0.092603     -0.383086      0.383086  *
 *  y     -0.383086      0.092603      0.383086  *
 *  z      0.383086      0.383086      0.092603  *
 *                                               *
 *  Pressure:   -0.0926                          *
 *                                               *
 *************************************************

 Pseudo atomic calculation performed for Al 3s2 3p1

 Converged in 22 iterations to a total energy of -107.1308 eV

 Pseudo atomic calculation performed for Ti 3s2 3p6 3d2 4s2

 Converged in 51 iterations to a total energy of -1587.0236 eV
Charge spilling parameter for spin component 1 = 0.13%

            Orbital Populations       
     Ion    Atom   Orbital             Charge
  -------------------------------------------
     Al     1      S                    0.958
     Al     1      Px                   0.703
     Al     1      Py                   0.711
     Al     1      Pz                   0.704
     Al     2      S                    0.958
     Al     2      Px                   0.703
     Al     2      Py                   0.711
     Al     2      Pz                   0.704
     Ti     1      S                    2.003
     Ti     1      Px                   2.005
     Ti     1      Py                   2.006
     Ti     1      Pz                   2.006
     Ti     1      S                    0.297
     Ti     1      Dzz                  0.561
     Ti     1      Dzy                  0.515
     Ti     1      Dzx                  0.589
     Ti     1      Dxx-yy               0.515
     Ti     1      Dxy                  0.578
     Ti     1      Px                   0.278
     Ti     1      Py                   0.311
     Ti     1      Pz                   0.320
     Ti     2      S                    2.003
     Ti     2      Px                   2.005
     Ti     2      Py                   2.006
     Ti     2      Pz                   2.006
     Ti     2      S                    0.297
     Ti     2      Dzz                  0.561
     Ti     2      Dzy                  0.515
     Ti     2      Dzx                  0.589
     Ti     2      Dxx-yy               0.515
     Ti     2      Dxy                  0.578
     Ti     2      Px                   0.278
     Ti     2      Py                   0.311
     Ti     2      Pz                   0.320
     Ti     3      S                    2.003
     Ti     3      Px                   2.006
     Ti     3      Py                   2.005
     Ti     3      Pz                   2.006
     Ti     3      S                    0.304
     Ti     3      Dzz                  0.567
     Ti     3      Dzy                  0.573
     Ti     3      Dzx                  0.507
     Ti     3      Dxx-yy               0.502
     Ti     3      Dxy                  0.579
     Ti     3      Px                   0.321
     Ti     3      Py                   0.284
     Ti     3      Pz                   0.321
     Ti     4      S                    2.003
     Ti     4      Px                   2.006
     Ti     4      Py                   2.005
     Ti     4      Pz                   2.006
     Ti     4      S                    0.304
     Ti     4      Dzz                  0.567
     Ti     4      Dzy                  0.573
     Ti     4      Dzx                  0.507
     Ti     4      Dxx-yy               0.502
     Ti     4      Dxy                  0.579
     Ti     4      Px                   0.321
     Ti     4      Py                   0.284
     Ti     4      Pz                   0.321
     Ti     5      S                    2.003
     Ti     5      Px                   2.006
     Ti     5      Py                   2.006
     Ti     5      Pz                   2.005
     Ti     5      S                    0.295
     Ti     5      Dzz                  0.481
     Ti     5      Dzy                  0.573
     Ti     5      Dzx                  0.591
     Ti     5      Dxx-yy               0.585
     Ti     5      Dxy                  0.510
     Ti     5      Px                   0.320
     Ti     5      Py                   0.311
     Ti     5      Pz                   0.276
     Ti     6      S                    2.003
     Ti     6      Px                   2.006
     Ti     6      Py                   2.006
     Ti     6      Pz                   2.005
     Ti     6      S                    0.295
     Ti     6      Dzz                  0.481
     Ti     6      Dzy                  0.573
     Ti     6      Dzx                  0.591
     Ti     6      Dxx-yy               0.585
     Ti     6      Dxy                  0.510
     Ti     6      Px                   0.320
     Ti     6      Py                   0.311
     Ti     6      Pz                   0.276
  -------------------------------------------
                           Total:      78.000
  -------------------------------------------

     Atomic Populations (Mulliken)
     -----------------------------
Species          Ion     s       p       d       f      Total   Charge (e)
==========================================================================
  Al              1     0.958   2.118   0.000   0.000   3.076    -0.076
  Al              2     0.958   2.118   0.000   0.000   3.076    -0.076
  Ti              1     2.301   6.931   2.742   0.000  11.975     0.025
  Ti              2     2.301   6.931   2.742   0.000  11.975     0.025
  Ti              3     2.301   6.931   2.742   0.000  11.975     0.025
  Ti              4     2.301   6.931   2.742   0.000  11.975     0.025
  Ti              5     2.301   6.931   2.742   0.000  11.975     0.025
  Ti              6     2.301   6.931   2.742   0.000  11.975     0.025
==========================================================================

                 Bond                   Population      Length (A)
======================================================================
              Ti 1 -- Ti 4                  -0.08        2.79525
              Ti 5 -- Ti 6                   0.19        2.79525
              Ti 4 -- Ti 6                  -0.08        2.79525
              Ti 3 -- Ti 5                  -0.08        2.79525
              Ti 3 -- Ti 4                   0.19        2.79525
              Ti 2 -- Ti 6                  -0.08        2.79525
              Ti 2 -- Ti 3                  -0.08        2.79525
              Ti 1 -- Ti 5                  -0.08        2.79525
              Ti 1 -- Ti 2                   0.19        2.79525
              Al 2 -- Ti 5                   0.58        2.79525
              Al 2 -- Ti 4                   0.58        2.79525
              Al 2 -- Ti 2                   0.58        2.79525
              Al 1 -- Ti 6                   0.58        2.79525
              Al 1 -- Ti 3                   0.58        2.79525
              Al 1 -- Ti 1                   0.58        2.79525
              Al 1 -- Al 2                   0.51        2.79525
======================================================================


Writing analysis data to ti64_bcc_phonon_AlAl.castep_bin

Writing model to ti64_bcc_phonon_AlAl.check
 
 A BibTeX formatted list of references used in this run has been written to 
 ti64_bcc_phonon_AlAl.bib
 
Initialisation time =     12.27 s
Calculation time    =  12750.21 s
Finalisation time   =      2.45 s
Total time          =  12764.92 s
Peak Memory Use     = 3269152 kB
 
Overall parallel efficiency rating: Mediocre (50%)
 
Data was distributed by:-
G-vector (4-way); efficiency rating: Mediocre (52%)
k-point (48-way); efficiency rating: Excellent (94%)
