 +-------------------------------------------------+
 |                                                 |
 |      CCC   AA    SSS  TTTTT  EEEEE  PPPP        |
 |     C     A  A  S       T    E      P   P       |
 |     C     AAAA   SS     T    EEE    PPPP        |
 |     C     A  A     S    T    E      P           |
 |      CCC  A  A  SSS     T    EEEEE  P           |
 |                                                 |
 +-------------------------------------------------+
 |                                                 |
 | Welcome to Academic Release CASTEP version 24.1 |
 | Ab Initio Total Energy Program                  |
 |                                                 |
 | Authors:                                        |
 | M. Segall, M. Probert, C. Pickard, P. Hasnip,   |
 | S. Clark, K. Refson, J. R. Yates,               |
 | A. Bartok-Partay, M. Payne                      |
 |                                                 |
 | Contributors:                                   |
 | P. Lindan, P. Haynes, J. White, V. Milman,      |
 | N. Govind, M. Gibson, P. Tulip, V. Cocula,      |
 | B. Montanari, D. Quigley, M. Glover,            |
 | L. Bernasconi, A. Perlov, M. Plummer,           |
 | E. McNellis, J. Meyer, J. Gale, D. Jochym       |
 | J. Aarons, B. Walker, R. Gillen, D. Jones       |
 | T. Green, I. J. Bush, C. J. Armstrong,          |
 | E. J. Higgins, E. L. Brown, M. S. McFly,        |
 | J. Wilkins, B-C. Shih, P. J. P. Byrne,          |
 | R. J. Maurer, J. C. Womack, J. Dziedzic,        |
 | L. LeBlanc, T. K. Stenczel, J. Kermode,         |
 | S. Sturniolo, B. Shi, B. Durham, M. Evans,      |
 | M. J. Smith, A. Tamerus, Z. Hawkhead,           |
 | V. Ravindran, T. Hollins, S. A. Joyce,          |
 | R. T. Strong, A. M. Reilly                      |
 |                                                 |
 | Copyright (c) 2000 - 2023                       |
 |                                                 |
 |     Distributed under license from Cambridge    |
 |     Enterprise for academic use only.           |
 |                                                 |
 | Please cite                                     |
 |                                                 |
 |     "First principles methods using CASTEP"     |
 |                                                 |
 |         Zeitschrift fuer Kristallographie       |
 |           220(5-6) pp. 567-570 (2005)           |
 |                                                 |
 | S. J. Clark, M. D. Segall, C. J. Pickard,       |
 | P. J. Hasnip, M. J. Probert, K. Refson,         |
 | M. C. Payne                                     |
 |                                                 |
 |       in all publications arising from          |
 |              your use of CASTEP                 |
 |                                                 |
 +-------------------------------------------------+
 |                                                 |
 |              http://www.castep.org              |
 |                                                 |
 +-------------------------------------------------+



 Compiled for linux_x86_64_gfortran10 on Tue, 02 May 2023 15:31:46 +0100
 from code version db08e394c+  default  Mon May 1 16:40:39 2023 +0100
 Compiler: GNU Fortran 10.2.0; Optimisation: fast
 Comms   : Open MPI v4.0.5
 MATHLIBS: openblas (LAPACK version 3.9.0)
 FFT Lib : fftw3 version fftw-3.3.8-sse2-avx-avx2-avx2_128
 Fundamental constants values: CODATA 2018

 Run started: Mon, 13 May 2024 15:10:19 +0100
 +-------------------------------------------------+
 |                                                 |
 |  D D D D    F F F F F  P P P P     T T T T T    |
 |  D       D  F          P       P       T        |
 |  D       D  F F F F    P P P P         T        |
 |  D       D  F          P               T        |
 |  D D D D    F          P               T        |
 |                                                 |
 +-------------------------------------------------+
 |                                                 |
 | Welcome to Castep Linear Response (DFPT)        |
 |                                                 |
 | Copyright (c) 2006 - 2023                       |
 |                                                 |
 | Please cite the following publications in all   |
 | work arising from your use of CASTEP LR.        |
 |                                                 |
 | K. Refson, S. J. Clark and P. R. Tulip          |
 | Variational density functional perturbation     |
 | theory for dielectrics and lattice dynamics     |
 | Phys. Rev. B 73(15), 155114 (2006)              |
 +-------------------------------------------------+


 Atomic calculation performed for Al: 1s2 2s2 2p6 3s2 3p1

 Converged in 54 iterations to an ae energy of -6603.783 eV

   ============================================================                
   | Pseudopotential Report - Date of generation 13-05-2024   |                
   ------------------------------------------------------------                
   | Element: Al Ionic charge:  3.00 Level of theory: PBE     |                
   | Atomic Solver: Koelling-Harmon                           |                
   |                                                          |                
   |               Reference Electronic Structure             |                
   |         Orbital         Occupation         Energy        |                
   |            3s              2.000           -0.285        |                
   |            3p              1.000           -0.100        |                
   |                                                          |                
   |                 Pseudopotential Definition               |                
   |        Beta     l      e      Rc     scheme   norm       |                
   |          1      0   -0.285   2.192     qc      0         |                
   |          2      0    0.250   2.192     qc      0         |                
   |          3      1   -0.100   2.192     qc      0         |                
   |          4      1    0.250   2.192     qc      0         |                
   |          5      2    0.000   2.000     qc      0         |                
   |          6      2    0.250   2.000     qc      0         |                
   |         loc     3    0.000   2.192     pn      0         |                
   |                                                          |                
   | Augmentation charge Rinner = 1.398                       |                
   | Partial core correction Rc = 1.398                       |                
   ------------------------------------------------------------                
   | "3|2.2|2.2|1.4|4|5|5|30:31:32U2U2"                       |                
   ------------------------------------------------------------                
   |      Author: Chris J. Pickard, Cambridge University      |                
   ============================================================                

 Atomic calculation performed for Ti: 1s2 2s2 2p6 3s2 3p6 3d2 4s2

 Converged in 79 iterations to an ae energy of -23226.658 eV

   ============================================================                
   | Pseudopotential Report - Date of generation 13-05-2024   |                
   ------------------------------------------------------------                
   | Element: Ti Ionic charge: 12.00 Level of theory: PBE     |                
   | Atomic Solver: Koelling-Harmon                           |                
   |                                                          |                
   |               Reference Electronic Structure             |                
   |         Orbital         Occupation         Energy        |                
   |            3s              2.000           -2.302        |                
   |            3p              6.000           -1.428        |                
   |            4s              2.000           -0.164        |                
   |            3d              2.000           -0.157        |                
   |                                                          |                
   |                 Pseudopotential Definition               |                
   |        Beta     l      e      Rc     scheme   norm       |                
   |          1      0   -2.302   1.793     qc      0         |                
   |          2      0   -0.164   1.793     qc      0         |                
   |          3      0    0.250   1.793     qc      0         |                
   |          4      1   -1.428   1.793     qc      0         |                
   |          5      1    0.250   1.793     qc      0         |                
   |          6      2   -0.157   1.793     qc      0         |                
   |          7      2    0.250   1.793     qc      0         |                
   |         loc     3    0.000   1.793     pn      0         |                
   |                                                          |                
   | Augmentation charge Rinner = 1.263                       |                
   | Partial core correction Rc = 1.263                       |                
   ------------------------------------------------------------                
   | "3|1.8|9|10|11|30U:40:31:32(qc=5.5)"                     |                
   ------------------------------------------------------------                
   |      Author: Chris J. Pickard, Cambridge University      |                
   ============================================================                

 Pseudo atomic calculation performed for Al 3s2 3p1

 Converged in 22 iterations to a total energy of -107.1308 eV

 Pseudo atomic calculation performed for Ti 3s2 3p6 3d2 4s2

 Converged in 51 iterations to a total energy of -1587.0236 eV
 Calculation parallelised over 192 processes.
 Data is distributed by G-vector(6-way) and k-point(32-way)

 ************************************ Title ************************************
 

 ***************************** General Parameters ******************************
  
 output verbosity                               : normal  (1)
 write checkpoint data to                       : ti64_hex_phonon_AlAl.check
 type of calculation                            : phonon calculation
 stress calculation                             : on
 density difference calculation                 : off
 electron localisation func (ELF) calculation   : off
 Hirshfeld analysis                             : off
 polarisation (Berry phase) analysis            : off
 molecular orbital projected DOS                : off
 deltaSCF calculation                           : off
 unlimited duration calculation
 timing information                             : on
 memory usage estimate                          : on
 write extra output files                       : on
 write final potential to formatted file        : off
 write final density to formatted file          : off
 write structure in CELL formatted file         : on
 write BibTeX reference list                    : on
 write OTFG pseudopotential files               : on
 write electrostatic potential file             : on
 write bands file                               : on
 checkpoint writing                             : both castep_bin and check files
  
 output         length unit                     : A
 output           mass unit                     : amu
 output           time unit                     : ps
 output         charge unit                     : e
 output           spin unit                     : hbar/2
 output         energy unit                     : eV
 output          force unit                     : eV/A
 output       velocity unit                     : A/ps
 output       pressure unit                     : GPa
 output     inv_length unit                     : 1/A
 output      frequency unit                     : THz
 output force constant unit                     : eV/A**2
 output         volume unit                     : A**3
 output   IR intensity unit                     : (D/A)**2/amu
 output         dipole unit                     : D
 output         efield unit                     : eV/A/e
 output        entropy unit                     : J/mol/K
 output    efield chi2 unit                     : pm/V
  
 wavefunctions paging                           : none
 random number generator seed                   :  151019812
 data distribution                              : k-point only
 optimization strategy                          : maximize speed(+++)

 *********************** Exchange-Correlation Parameters ***********************
  
 using functional                               : Perdew Burke Ernzerhof
 relativistic treatment                         : Koelling-Harmon
 DFT+D: Semi-empirical dispersion correction    : off

 ************************* Pseudopotential Parameters **************************
  
 pseudopotential representation                 : reciprocal space
 <beta|phi> representation                      : reciprocal space
 spin-orbit coupling                            : off

 **************************** Basis Set Parameters *****************************
  
 plane wave basis set cut-off                   :   800.0000   eV
 size of standard grid                          :     2.0000
 size of   fine   grid                          :     4.0000
 size of   fine   gmax                          :    57.9620   1/A
 largest prime factor in FFT                    :          5
 finite basis set correction                    : automatic
 number of sample energies                      :          3
           sample  spacing                      :     5.0000   eV

 **************************** Electronic Parameters ****************************
  
 number of  electrons                           :  126.0    
 net charge of system                           :  0.000    
 treating system as non-spin-polarized
 number of bands                                :         98

 ********************* Electronic Minimization Parameters **********************
  
 Method: Treating system as metallic with density mixing treatment of electrons,
         and number of  SD  steps               :          1
         and number of  CG  steps               :          4
  
 total energy / atom convergence tol.           : 0.1000E-08   eV
 eigen-energy convergence tolerance             : 0.1224E-09   eV
 max force / atom convergence tol.              : ignored
 convergence tolerance window                   :          3   cycles
 max. number of SCF cycles                      :         30
 number of fixed-spin iterations                :         10
 smearing scheme                                : Gaussian
 smearing width                                 : 0.5000E-01   eV
 Fermi energy convergence tolerance             : 0.2721E-13   eV
 periodic dipole correction                     : NONE

 ************************** Density Mixing Parameters **************************
  
 density-mixing scheme                          : Pulay
 max. length of mixing history                  :         20
 charge density mixing amplitude                : 0.8000    
 cut-off energy for mixing                      :  800.0       eV
 charge density mixing g-vector                 :  1.500       1/A

 *********************** Population Analysis Parameters ************************
  
 Population analysis with cutoff                :  3.000       A
 Population analysis output                     : summary and pdos components

 ****************************** Phonon Parameters ******************************
  
 phonon calculation method                      : finite displacement
 finite displacement amplitude                  : 0.1000E-01   A
 fine phonon calculation method                 : interpolation
 non-periodic force constant method             : Weighted cumulant sum
 force constant cutoff scale factor             :     1.0000
 LO/TO splitting term                           : included
 acoustic phonon sum rule                       : correct D(q) in recip-space
 Born effective charges                         : calculated
 Born charge sum rule                           : explicitly enforced
 Raman intensities                              : not calculated
 phonon extra output                            : real-space force constants
 phonon k-points                                : use reduced set
 phonon DOS                                     : not calculated
 backups results every                          :       3600   seconds
 band convergence tolerance                     : 0.1000E-08   eV

 ******************************* Developer Code ********************************
  
 PARALLEL: kpoints=32 : ENDPARALLEL
 PHONON: DENSITY_SCHEME=NONE FD_WVFN_SCHEME=NONE COMMS_REASSIGN=F : ENDPHONON
 no_improve_wvfn

 *******************************************************************************
  

                           -------------------------------
                                      Unit Cell
                           -------------------------------
        Real Lattice(A)                      Reciprocal Lattice(1/A)
     7.9236800     0.0000000     0.0000000        0.792963031  -0.000000000  -0.000000000
     0.0000000     4.5747390     0.0000000        0.000000000   1.373452192  -0.000000000
     0.0000000     0.0000000     5.5908970        0.000000000   0.000000000   1.123824193

                       Lattice parameters(A)       Cell Angles
                    a =      7.923680          alpha =   90.000000
                    b =      4.574739          beta  =   90.000000
                    c =      5.590897          gamma =   90.000000

                       Current cell volume =           202.663128       A**3
                                   density =             2.628170   AMU/A**3
                                           =             4.364178     g/cm^3

                           -------------------------------
                                     Cell Contents
                           -------------------------------
                         Total number of ions in cell =   12
                      Total number of species in cell =    2
                        Max number of any one species =   10

            xxxxxxxxxxxxxxxxxxxxxxxxxxxxxxxxxxxxxxxxxxxxxxxxxxxxxxxxxxxx
            x  Element    Atom        Fractional coordinates of atoms  x
            x            Number           u          v          w      x
            x----------------------------------------------------------x
            x  Al           1        -0.001464   0.000000  -0.004131   x 
            x  Al           2         0.171685   0.500000   0.266987   x 
            x  Ti           1         0.336953   0.000000   0.240964   x 
            x  Ti           2         0.499197   0.500000   0.001677   x 
            x  Ti           3         0.669642   0.000000   0.252214   x 
            x  Ti           4         0.834368   0.500000   0.242310   x 
            x  Ti           5        -0.001590   0.000000   0.504705   x 
            x  Ti           6         0.162867   0.500000   0.763757   x 
            x  Ti           7         0.337521   0.000000   0.738167   x 
            x  Ti           8         0.498019   0.500000   0.498758   x 
            x  Ti           9         0.668500   0.000000   0.753136   x 
            x  Ti          10         0.824303   0.500000   0.741458   x 
            xxxxxxxxxxxxxxxxxxxxxxxxxxxxxxxxxxxxxxxxxxxxxxxxxxxxxxxxxxxx


                         No user defined ionic velocities

                           -------------------------------
                                   Details of Species
                           -------------------------------

                               Mass of species in AMU
                                    Al   26.9815400
                                    Ti   47.8670000

                          Electric Quadrupole Moment (Barn)
                                    Al    0.1466000 Isotope 27
                                    Ti    0.3020000 Isotope 47

                          Files used for pseudopotentials:
                                    Al 3|2.2|2.2|1.4|4|5|5|30:31:32U2U2
                                    Ti 3|1.8|9|10|11|30U:40:31:32(qc=5.5)

                           -------------------------------
                              k-Points For BZ Sampling
                           -------------------------------
                       MP grid size for SCF calculation is  7 11  9
                            with an offset of   0.000  0.000  0.000
                       Number of kpoints used =           192

                           -------------------------------
                               Symmetry and Constraints
                           -------------------------------

                      Maximum deviation from symmetry = 0.940008E-15     ANG

                      Number of symmetry operations   =           2
                      Number of ionic constraints     =           3
                      Point group of crystal =     3: Cs, m, m
                      Space group of crystal =     6: Pm, P -2y

             Set iprint > 1 for details on symmetry rotations/translations

                         Centre of mass is constrained
             Set iprint > 1 for details of linear ionic constraints

                         Number of cell constraints= 2
                         Cell constraints are:  1 2 3 0 5 0

                         External pressure/stress (GPa)
                          0.00000   0.00000   0.00000
                                    0.00000   0.00000
                                              0.00000
 
+---------------- MEMORY AND SCRATCH DISK ESTIMATES PER PROCESS --------------+
|                                                     Memory          Disk    |
| Baseline code, static data and system overhead      591.0 MB         0.0 MB |
| BLAS internal memory storage                          0.0 MB         0.0 MB |
| Model and support data                              924.5 MB         0.0 MB |
| Electronic energy minimisation requirements          75.0 MB         0.0 MB |
| Force calculation requirements                       37.2 MB         0.0 MB |
| Stress calculation requirements                      41.0 MB         0.0 MB |
|                                               ----------------------------- |
| Approx. total storage required per process         1590.5 MB         0.0 MB |
|                                                                             |
| Requirements will fluctuate during execution and may exceed these estimates |
+-----------------------------------------------------------------------------+
Calculating finite basis set correction with  3 cut-off energies.
Calculating total energy with cut-off of  790.000 eV.
------------------------------------------------------------------------ <-- SCF
SCF loop      Energy           Fermi           Energy gain       Timer   <-- SCF
                               energy          per atom          (sec)   <-- SCF
------------------------------------------------------------------------ <-- SCF
Initial  -1.43889662E+004  0.00000000E+000                        17.43  <-- SCF
      1  -1.56951578E+004  1.08934760E+001   1.08849300E+002      26.16  <-- SCF
      2  -1.61330047E+004  8.97244993E+000   3.64872353E+001      32.40  <-- SCF
      3  -1.61627508E+004  8.61595399E+000   2.47884159E+000      39.85  <-- SCF
      4  -1.61681083E+004  7.81737462E+000   4.46461539E-001      50.42  <-- SCF
      5  -1.61627284E+004  8.08039018E+000  -4.48325084E-001      61.13  <-- SCF
      6  -1.61617673E+004  8.32068851E+000  -8.00940796E-002      71.63  <-- SCF
      7  -1.61614007E+004  8.30721886E+000  -3.05518772E-002      82.36  <-- SCF
      8  -1.61612627E+004  8.27355520E+000  -1.14980070E-002      92.64  <-- SCF
      9  -1.61611911E+004  8.25230638E+000  -5.96746882E-003     103.00  <-- SCF
     10  -1.61611962E+004  8.22810758E+000   4.25696127E-004     113.57  <-- SCF
     11  -1.61611848E+004  8.22827170E+000  -9.50228040E-004     124.12  <-- SCF
     12  -1.61611853E+004  8.22763527E+000   4.33030662E-005     134.63  <-- SCF
     13  -1.61611839E+004  8.22988619E+000  -1.19519493E-004     144.91  <-- SCF
     14  -1.61611839E+004  8.23023831E+000   6.35099412E-006     155.63  <-- SCF
     15  -1.61611839E+004  8.23012552E+000  -6.83418524E-006     165.77  <-- SCF
     16  -1.61611839E+004  8.23017417E+000   1.24300675E-007     176.69  <-- SCF
     17  -1.61611839E+004  8.23011296E+000  -1.10950862E-007     186.66  <-- SCF
     18  -1.61611839E+004  8.23011571E+000  -5.85201545E-009     196.50  <-- SCF
     19  -1.61611839E+004  8.23011051E+000  -1.32559751E-009     203.97  <-- SCF
     20  -1.61611839E+004  8.23011077E+000   1.26321038E-010     210.95  <-- SCF
     21  -1.61611839E+004  8.23011158E+000  -1.38953142E-010     217.91  <-- SCF
------------------------------------------------------------------------ <-- SCF
 
Final energy, E             =  -16161.16683687     eV
Final free energy (E-TS)    =  -16161.18385292     eV
(energies not corrected for finite basis set)
 
NB est. 0K energy (E-0.5TS)      =  -16161.17534490     eV
 
Calculating total energy with cut-off of  795.000 eV.
------------------------------------------------------------------------ <-- SCF
SCF loop      Energy           Fermi           Energy gain       Timer   <-- SCF
                               energy          per atom          (sec)   <-- SCF
------------------------------------------------------------------------ <-- SCF
Initial  -1.61611668E+004  0.00000000E+000                       225.06  <-- SCF
      1  -1.61611841E+004  8.23010863E+000   1.43497956E-003     231.37  <-- SCF
      2  -1.61611841E+004  8.23010863E+000   3.04407923E-009     239.59  <-- SCF
      3  -1.61611841E+004  8.23010380E+000   6.63314350E-009     247.62  <-- SCF
      4  -1.61611841E+004  8.23020020E+000   3.19515661E-007     258.05  <-- SCF
      5  -1.61611841E+004  8.22997114E+000   2.42157173E-007     268.34  <-- SCF
      6  -1.61611841E+004  8.23015253E+000  -4.58457976E-007     278.42  <-- SCF
      7  -1.61611841E+004  8.23011453E+000  -1.05480129E-007     288.51  <-- SCF
      8  -1.61611841E+004  8.23008942E+000   1.83588294E-008     298.28  <-- SCF
      9  -1.61611841E+004  8.23010321E+000  -1.88955650E-008     307.45  <-- SCF
     10  -1.61611841E+004  8.23010295E+000  -1.78138444E-010     314.51  <-- SCF
     11  -1.61611841E+004  8.23011163E+000  -2.08816410E-011     321.31  <-- SCF
------------------------------------------------------------------------ <-- SCF
 
Final energy, E             =  -16161.16704059     eV
Final free energy (E-TS)    =  -16161.18405671     eV
(energies not corrected for finite basis set)
 
NB est. 0K energy (E-0.5TS)      =  -16161.17554865     eV
 
Calculating total energy with cut-off of  800.000 eV.
------------------------------------------------------------------------ <-- SCF
SCF loop      Energy           Fermi           Energy gain       Timer   <-- SCF
                               energy          per atom          (sec)   <-- SCF
------------------------------------------------------------------------ <-- SCF
Initial  -1.61611670E+004  0.00000000E+000                       328.46  <-- SCF
      1  -1.61611843E+004  8.23010280E+000   1.43447003E-003     334.73  <-- SCF
      2  -1.61611843E+004  8.23010280E+000   2.90486829E-009     343.21  <-- SCF
      3  -1.61611843E+004  8.23013444E+000   2.23461143E-007     353.70  <-- SCF
      4  -1.61611844E+004  8.22983470E+000   1.48807140E-005     364.20  <-- SCF
      5  -1.61611843E+004  8.23015070E+000  -1.50978554E-005     374.47  <-- SCF
      6  -1.61611843E+004  8.23002537E+000   8.72857235E-007     385.07  <-- SCF
      7  -1.61611843E+004  8.23010356E+000  -7.88432761E-007     395.26  <-- SCF
      8  -1.61611843E+004  8.23011822E+000  -9.41274772E-008     405.72  <-- SCF
      9  -1.61611843E+004  8.23007516E+000   1.21814729E-008     415.37  <-- SCF
     10  -1.61611843E+004  8.23009947E+000  -1.24539654E-008     424.53  <-- SCF
     11  -1.61611843E+004  8.23009961E+000   1.68599916E-010     432.21  <-- SCF
     12  -1.61611843E+004  8.23010675E+000  -7.61277604E-010     439.06  <-- SCF
------------------------------------------------------------------------ <-- SCF
 
Final energy, E             =  -16161.16723816     eV
Final free energy (E-TS)    =  -16161.18425421     eV
(energies not corrected for finite basis set)
 
NB est. 0K energy (E-0.5TS)      =  -16161.17574619     eV
 
 For future reference: finite basis dEtot/dlog(Ecut) =      -0.031949eV
 Total energy corrected for finite basis set =  -16161.184254 eV

 Finite displacement calculation will use NONE scheme to initialised displaced electron density.

 ************************** Forces **************************
 *                                                          *
 *               Cartesian components (eV/A)                *
 * -------------------------------------------------------- *
 *                         x            y            z      *
 *                                                          *
 * Al              1     -0.00367      0.00000      0.00027 *
 * Al              2      0.00885      0.00000      0.06591 *
 * Ti              1      0.00080      0.00000     -0.03826 *
 * Ti              2     -0.00276      0.00000     -0.00486 *
 * Ti              3      0.00041      0.00000     -0.00609 *
 * Ti              4      0.00981      0.00000     -0.01829 *
 * Ti              5     -0.00318      0.00000      0.00083 *
 * Ti              6     -0.00516      0.00000      0.05214 *
 * Ti              7     -0.00562      0.00000     -0.03355 *
 * Ti              8      0.01016      0.00000     -0.00571 *
 * Ti              9     -0.00467      0.00000      0.00042 *
 * Ti             10     -0.00497      0.00000     -0.01280 *
 *                                                          *
 ************************************************************
 ???????????????????????????????????????????????????????????????????????????????? 
 ?                                                                              ? 
 ?     WARNING in PHONON calculation:  Prerequisite GEOMETRY OPTIMISATION       ? 
 ?     has not been performed or is not converged to sufficient accuracy.       ? 
 ?                                                                              ? 
 ?        Maximum force |F|max     = 0.6650E-01 eV/A                            ? 
 ?        Parameter GEOM_FORCE_TOL = 0.5000E-01 eV/A                            ? 
 ?                                                                              ? 
 ?   This could be because of any of the following                              ? 
 ?     (a) No geometry optimisation was performed                               ? 
 ?     (b) A geometry optimisation failed to converge                           ? 
 ?     (c) An error was made copying the optimised geometry to this .cell file  ? 
 ?     (d) Cutoff, k-point sampling or other convergence parameter differ       ? 
 ?         from the geometry optimisation run to this one.                      ? 
 ?   Please check your input parameters and if necessary run or re-run a        ? 
 ?   geometry optimisation calculation.                                         ? 
 ?                                                                              ? 
 ?   Typically a force tolerance convergence of 0.025 eV/A is necessary to      ? 
 ?   obtain well converged phonon frequencies althout a smaller value can be    ? 
 ?   required in the presence of weak forces, e.g. in molecular crystals        ? 
 ?                                                                              ? 
 ???????????????????????????????????????????????????????????????????????????????? 
 ??????????????????????????????????????????????????????????????????????????????? 
     WARNING: Calculation of Born effective charges and IR intensities is not    
              implemented for ultrasoft pseudopotentials.                        
              Parameter CALCULATE_BORN_CHARGES changed to .FALSE.                
 ??????????????????????????????????????????????????????????????????????????????? 
 ??????????????????????????????????????????????????????????????????????????????? 
     WARNING: Calculation of LO/TO splitting is not implemented for ultrasoft    
              pseudopotentials.                                                  
              Parameter PHONON_CALC_LO_TO_SPLITTING changed to .FALSE.           
 ??????????????????????????????????????????????????????????????????????????????? 

 Phonon supercell    1 (of 7)      [  0 -1  0; -1  0  0;  0  0 -2]:     448.70s
 -------------------------------------------------------------------------------
 Perturbation    1 (of   36): Al    1 X at q=( 0.000, 0.000, 0.000):    452.65s
  Parallel strategy changed for perturbation using 108 k-points
  Data is distributed by G-vector(6-way) and k-point(32-way) and band(1-way)
  +---------------- MEMORY AND SCRATCH DISK ESTIMATES PER PROCESS --------------+
  |                                                     Memory          Disk    |
  | Baseline code, static data and system overhead      591.0 MB         0.0 MB |
  | BLAS internal memory storage                          0.0 MB         0.0 MB |
  | Model and support data                              924.5 MB         0.0 MB |
  | Finite displacement phonon requirements             225.7 MB         0.0 MB |
  |                                               ----------------------------- |
  | Approx. total storage required per process         1741.3 MB         0.0 MB |
  |                                                                             |
  | Requirements will fluctuate during execution and may exceed these estimates |
  +-----------------------------------------------------------------------------+
 Perturbation    2 (of   36): Al    1 Y at q=( 0.000, 0.000, 0.000):   1701.54s
  Parallel strategy changed for perturbation using 193 k-points
  Data is distributed by G-vector(6-way) and k-point(32-way) and band(1-way)
  +---------------- MEMORY AND SCRATCH DISK ESTIMATES PER PROCESS --------------+
  |                                                     Memory          Disk    |
  | Baseline code, static data and system overhead      591.0 MB         0.0 MB |
  | BLAS internal memory storage                          0.0 MB         0.0 MB |
  | Model and support data                              924.5 MB         0.0 MB |
  | Finite displacement phonon requirements             291.7 MB         0.0 MB |
  |                                               ----------------------------- |
  | Approx. total storage required per process         1807.3 MB         0.0 MB |
  |                                                                             |
  | Requirements will fluctuate during execution and may exceed these estimates |
  +-----------------------------------------------------------------------------+
 Perturbation    3 (of   36): Al    1 Z at q=( 0.000, 0.000, 0.000):   3376.03s
  Parallel strategy changed for perturbation using 108 k-points
  Data is distributed by G-vector(6-way) and k-point(32-way) and band(1-way)

Writing analysis data to ti64_hex_phonon_AlAl.castep_bin

Writing model to ti64_hex_phonon_AlAl.check
 Perturbation    4 (of   36): Al    2 X at q=( 0.000, 0.000, 0.000):   4656.26s
 Perturbation    5 (of   36): Al    2 Y at q=( 0.000, 0.000, 0.000):   5876.20s
  Parallel strategy changed for perturbation using 193 k-points
  Data is distributed by G-vector(6-way) and k-point(32-way) and band(1-way)
 Perturbation    6 (of   36): Al    2 Z at q=( 0.000, 0.000, 0.000):   7518.16s
  Parallel strategy changed for perturbation using 108 k-points
  Data is distributed by G-vector(6-way) and k-point(32-way) and band(1-way)

Writing analysis data to ti64_hex_phonon_AlAl.castep_bin

Writing model to ti64_hex_phonon_AlAl.check
 Perturbation    7 (of   36): Ti    1 X at q=( 0.000, 0.000, 0.000):   8795.61s
 Perturbation    8 (of   36): Ti    1 Y at q=( 0.000, 0.000, 0.000):  10116.27s
  Parallel strategy changed for perturbation using 193 k-points
  Data is distributed by G-vector(6-way) and k-point(32-way) and band(1-way)
 Perturbation    9 (of   36): Ti    1 Z at q=( 0.000, 0.000, 0.000):  12021.31s
  Parallel strategy changed for perturbation using 108 k-points
  Data is distributed by G-vector(6-way) and k-point(32-way) and band(1-way)

Writing analysis data to ti64_hex_phonon_AlAl.castep_bin

Writing model to ti64_hex_phonon_AlAl.check
 Perturbation   10 (of   36): Ti    2 X at q=( 0.000, 0.000, 0.000):  13450.68s
 Perturbation   11 (of   36): Ti    2 Y at q=( 0.000, 0.000, 0.000):  14799.12s
  Parallel strategy changed for perturbation using 193 k-points
  Data is distributed by G-vector(6-way) and k-point(32-way) and band(1-way)
 Perturbation   12 (of   36): Ti    2 Z at q=( 0.000, 0.000, 0.000):  16686.16s
  Parallel strategy changed for perturbation using 108 k-points
  Data is distributed by G-vector(6-way) and k-point(32-way) and band(1-way)

Writing analysis data to ti64_hex_phonon_AlAl.castep_bin

Writing model to ti64_hex_phonon_AlAl.check
 Perturbation   13 (of   36): Ti    3 X at q=( 0.000, 0.000, 0.000):  18097.33s
 Perturbation   14 (of   36): Ti    3 Y at q=( 0.000, 0.000, 0.000):  19470.00s
  Parallel strategy changed for perturbation using 193 k-points
  Data is distributed by G-vector(6-way) and k-point(32-way) and band(1-way)
 Perturbation   15 (of   36): Ti    3 Z at q=( 0.000, 0.000, 0.000):  21375.10s
  Parallel strategy changed for perturbation using 108 k-points
  Data is distributed by G-vector(6-way) and k-point(32-way) and band(1-way)

Writing analysis data to ti64_hex_phonon_AlAl.castep_bin

Writing model to ti64_hex_phonon_AlAl.check
 Perturbation   16 (of   36): Ti    4 X at q=( 0.000, 0.000, 0.000):  22788.73s
 Perturbation   17 (of   36): Ti    4 Y at q=( 0.000, 0.000, 0.000):  24122.51s
  Parallel strategy changed for perturbation using 193 k-points
  Data is distributed by G-vector(6-way) and k-point(32-way) and band(1-way)
 Perturbation   18 (of   36): Ti    4 Z at q=( 0.000, 0.000, 0.000):  26007.78s
  Parallel strategy changed for perturbation using 108 k-points
  Data is distributed by G-vector(6-way) and k-point(32-way) and band(1-way)

Writing analysis data to ti64_hex_phonon_AlAl.castep_bin

Writing model to ti64_hex_phonon_AlAl.check
 Perturbation   19 (of   36): Ti    5 X at q=( 0.000, 0.000, 0.000):  27394.31s
 Perturbation   20 (of   36): Ti    5 Y at q=( 0.000, 0.000, 0.000):  28690.51s
  Parallel strategy changed for perturbation using 193 k-points
  Data is distributed by G-vector(6-way) and k-point(32-way) and band(1-way)
 Perturbation   21 (of   36): Ti    5 Z at q=( 0.000, 0.000, 0.000):  30604.14s
  Parallel strategy changed for perturbation using 108 k-points
  Data is distributed by G-vector(6-way) and k-point(32-way) and band(1-way)

Writing analysis data to ti64_hex_phonon_AlAl.castep_bin

Writing model to ti64_hex_phonon_AlAl.check
 Perturbation   22 (of   36): Ti    6 X at q=( 0.000, 0.000, 0.000):  32008.81s
 Perturbation   23 (of   36): Ti    6 Y at q=( 0.000, 0.000, 0.000):  33336.40s
  Parallel strategy changed for perturbation using 193 k-points
  Data is distributed by G-vector(6-way) and k-point(32-way) and band(1-way)
 Perturbation   24 (of   36): Ti    6 Z at q=( 0.000, 0.000, 0.000):  35178.12s
  Parallel strategy changed for perturbation using 108 k-points
  Data is distributed by G-vector(6-way) and k-point(32-way) and band(1-way)

Writing analysis data to ti64_hex_phonon_AlAl.castep_bin

Writing model to ti64_hex_phonon_AlAl.check
 Perturbation   25 (of   36): Ti    7 X at q=( 0.000, 0.000, 0.000):  36584.80s
 Perturbation   26 (of   36): Ti    7 Y at q=( 0.000, 0.000, 0.000):  37952.55s
  Parallel strategy changed for perturbation using 193 k-points
  Data is distributed by G-vector(6-way) and k-point(32-way) and band(1-way)
 Perturbation   27 (of   36): Ti    7 Z at q=( 0.000, 0.000, 0.000):  39866.76s
  Parallel strategy changed for perturbation using 108 k-points
  Data is distributed by G-vector(6-way) and k-point(32-way) and band(1-way)

Writing analysis data to ti64_hex_phonon_AlAl.castep_bin

Writing model to ti64_hex_phonon_AlAl.check
 Perturbation   28 (of   36): Ti    8 X at q=( 0.000, 0.000, 0.000):  41281.67s
 Perturbation   29 (of   36): Ti    8 Y at q=( 0.000, 0.000, 0.000):  42624.53s
  Parallel strategy changed for perturbation using 193 k-points
  Data is distributed by G-vector(6-way) and k-point(32-way) and band(1-way)
 Perturbation   30 (of   36): Ti    8 Z at q=( 0.000, 0.000, 0.000):  44537.05s
  Parallel strategy changed for perturbation using 108 k-points
  Data is distributed by G-vector(6-way) and k-point(32-way) and band(1-way)

Writing analysis data to ti64_hex_phonon_AlAl.castep_bin

Writing model to ti64_hex_phonon_AlAl.check
 Perturbation   31 (of   36): Ti    9 X at q=( 0.000, 0.000, 0.000):  45968.21s
 Perturbation   32 (of   36): Ti    9 Y at q=( 0.000, 0.000, 0.000):  47300.37s
  Parallel strategy changed for perturbation using 193 k-points
  Data is distributed by G-vector(6-way) and k-point(32-way) and band(1-way)
 Perturbation   33 (of   36): Ti    9 Z at q=( 0.000, 0.000, 0.000):  49210.11s
  Parallel strategy changed for perturbation using 108 k-points
  Data is distributed by G-vector(6-way) and k-point(32-way) and band(1-way)

Writing analysis data to ti64_hex_phonon_AlAl.castep_bin

Writing model to ti64_hex_phonon_AlAl.check
 Perturbation   34 (of   36): Ti   10 X at q=( 0.000, 0.000, 0.000):  50635.83s
 Perturbation   35 (of   36): Ti   10 Y at q=( 0.000, 0.000, 0.000):  51964.28s
  Parallel strategy changed for perturbation using 193 k-points
  Data is distributed by G-vector(6-way) and k-point(32-way) and band(1-way)
 Perturbation   36 (of   36): Ti   10 Z at q=( 0.000, 0.000, 0.000):  53883.31s
  Parallel strategy changed for perturbation using 108 k-points
  Data is distributed by G-vector(6-way) and k-point(32-way) and band(1-way)

Writing analysis data to ti64_hex_phonon_AlAl.castep_bin

Writing model to ti64_hex_phonon_AlAl.check

 Phonon supercell    2 (of 7)      [  0  0  1;  1  0  0;  0  2  0]:   55323.71s
 -------------------------------------------------------------------------------
 Perturbation    1 (of   36): Al    1 X at q=( 0.000, 0.000, 0.000):  55327.19s
  Parallel strategy changed for perturbation using 96 k-points
  Data is distributed by G-vector(6-way) and k-point(32-way) and band(1-way)
 Perturbation    2 (of   36): Al    1 Y at q=( 0.000, 0.000, 0.000):  56255.92s
  Parallel strategy changed for perturbation using 189 k-points
  Data is distributed by G-vector(6-way) and k-point(32-way) and band(1-way)
 Perturbation    3 (of   36): Al    1 Z at q=( 0.000, 0.000, 0.000):  57888.23s
  Parallel strategy changed for perturbation using 96 k-points
  Data is distributed by G-vector(6-way) and k-point(32-way) and band(1-way)
 Perturbation    4 (of   36): Al    2 X at q=( 0.000, 0.000, 0.000):  58793.23s

Writing analysis data to ti64_hex_phonon_AlAl.castep_bin

Writing model to ti64_hex_phonon_AlAl.check
 Perturbation    5 (of   36): Al    2 Y at q=( 0.000, 0.000, 0.000):  59703.46s
  Parallel strategy changed for perturbation using 189 k-points
  Data is distributed by G-vector(6-way) and k-point(32-way) and band(1-way)
 Perturbation    6 (of   36): Al    2 Z at q=( 0.000, 0.000, 0.000):  61377.96s
  Parallel strategy changed for perturbation using 96 k-points
  Data is distributed by G-vector(6-way) and k-point(32-way) and band(1-way)
 Perturbation    7 (of   36): Ti    1 X at q=( 0.000, 0.000, 0.000):  62267.11s
 Perturbation    8 (of   36): Ti    1 Y at q=( 0.000, 0.000, 0.000):  63273.83s
  Parallel strategy changed for perturbation using 189 k-points
  Data is distributed by G-vector(6-way) and k-point(32-way) and band(1-way)

Writing analysis data to ti64_hex_phonon_AlAl.castep_bin

Writing model to ti64_hex_phonon_AlAl.check
 Perturbation    9 (of   36): Ti    1 Z at q=( 0.000, 0.000, 0.000):  65073.90s
  Parallel strategy changed for perturbation using 96 k-points
  Data is distributed by G-vector(6-way) and k-point(32-way) and band(1-way)
 Perturbation   10 (of   36): Ti    2 X at q=( 0.000, 0.000, 0.000):  66047.11s
 Perturbation   11 (of   36): Ti    2 Y at q=( 0.000, 0.000, 0.000):  67006.65s
  Parallel strategy changed for perturbation using 189 k-points
  Data is distributed by G-vector(6-way) and k-point(32-way) and band(1-way)

Writing analysis data to ti64_hex_phonon_AlAl.castep_bin

Writing model to ti64_hex_phonon_AlAl.check
 Perturbation   12 (of   36): Ti    2 Z at q=( 0.000, 0.000, 0.000):  68772.07s
  Parallel strategy changed for perturbation using 96 k-points
  Data is distributed by G-vector(6-way) and k-point(32-way) and band(1-way)
 Perturbation   13 (of   36): Ti    3 X at q=( 0.000, 0.000, 0.000):  69734.43s
 Perturbation   14 (of   36): Ti    3 Y at q=( 0.000, 0.000, 0.000):  70718.01s
  Parallel strategy changed for perturbation using 189 k-points
  Data is distributed by G-vector(6-way) and k-point(32-way) and band(1-way)

Writing analysis data to ti64_hex_phonon_AlAl.castep_bin

Writing model to ti64_hex_phonon_AlAl.check
 Perturbation   15 (of   36): Ti    3 Z at q=( 0.000, 0.000, 0.000):  72528.65s
  Parallel strategy changed for perturbation using 96 k-points
  Data is distributed by G-vector(6-way) and k-point(32-way) and band(1-way)
 Perturbation   16 (of   36): Ti    4 X at q=( 0.000, 0.000, 0.000):  73500.91s
 Perturbation   17 (of   36): Ti    4 Y at q=( 0.000, 0.000, 0.000):  74464.34s
  Parallel strategy changed for perturbation using 189 k-points
  Data is distributed by G-vector(6-way) and k-point(32-way) and band(1-way)

Writing analysis data to ti64_hex_phonon_AlAl.castep_bin

Writing model to ti64_hex_phonon_AlAl.check
 Perturbation   18 (of   36): Ti    4 Z at q=( 0.000, 0.000, 0.000):  76256.16s
  Parallel strategy changed for perturbation using 96 k-points
  Data is distributed by G-vector(6-way) and k-point(32-way) and band(1-way)
 Perturbation   19 (of   36): Ti    5 X at q=( 0.000, 0.000, 0.000):  77231.25s
 Perturbation   20 (of   36): Ti    5 Y at q=( 0.000, 0.000, 0.000):  78192.94s
  Parallel strategy changed for perturbation using 189 k-points
  Data is distributed by G-vector(6-way) and k-point(32-way) and band(1-way)

Writing analysis data to ti64_hex_phonon_AlAl.castep_bin

Writing model to ti64_hex_phonon_AlAl.check
 Perturbation   21 (of   36): Ti    5 Z at q=( 0.000, 0.000, 0.000):  79935.39s
  Parallel strategy changed for perturbation using 96 k-points
  Data is distributed by G-vector(6-way) and k-point(32-way) and band(1-way)
 Perturbation   22 (of   36): Ti    6 X at q=( 0.000, 0.000, 0.000):  80934.05s
 Perturbation   23 (of   36): Ti    6 Y at q=( 0.000, 0.000, 0.000):  81931.75s
  Parallel strategy changed for perturbation using 189 k-points
  Data is distributed by G-vector(6-way) and k-point(32-way) and band(1-way)

Writing analysis data to ti64_hex_phonon_AlAl.castep_bin

Writing model to ti64_hex_phonon_AlAl.check
 Perturbation   24 (of   36): Ti    6 Z at q=( 0.000, 0.000, 0.000):  83780.77s
  Parallel strategy changed for perturbation using 96 k-points
  Data is distributed by G-vector(6-way) and k-point(32-way) and band(1-way)
 Perturbation   25 (of   36): Ti    7 X at q=( 0.000, 0.000, 0.000):  84757.34s
 Perturbation   26 (of   36): Ti    7 Y at q=( 0.000, 0.000, 0.000):  85767.02s
  Parallel strategy changed for perturbation using 189 k-points
  Data is distributed by G-vector(6-way) and k-point(32-way) and band(1-way)

Writing analysis data to ti64_hex_phonon_AlAl.castep_bin

Writing model to ti64_hex_phonon_AlAl.check
 Perturbation   27 (of   36): Ti    7 Z at q=( 0.000, 0.000, 0.000):  87518.10s
  Parallel strategy changed for perturbation using 96 k-points
  Data is distributed by G-vector(6-way) and k-point(32-way) and band(1-way)
 Perturbation   28 (of   36): Ti    8 X at q=( 0.000, 0.000, 0.000):  88509.83s
 Perturbation   29 (of   36): Ti    8 Y at q=( 0.000, 0.000, 0.000):  89473.45s
  Parallel strategy changed for perturbation using 189 k-points
  Data is distributed by G-vector(6-way) and k-point(32-way) and band(1-way)

Writing analysis data to ti64_hex_phonon_AlAl.castep_bin

Writing model to ti64_hex_phonon_AlAl.check
 Perturbation   30 (of   36): Ti    8 Z at q=( 0.000, 0.000, 0.000):  91245.38s
  Parallel strategy changed for perturbation using 96 k-points
  Data is distributed by G-vector(6-way) and k-point(32-way) and band(1-way)
 Perturbation   31 (of   36): Ti    9 X at q=( 0.000, 0.000, 0.000):  92206.33s
 Perturbation   32 (of   36): Ti    9 Y at q=( 0.000, 0.000, 0.000):  93228.24s
  Parallel strategy changed for perturbation using 189 k-points
  Data is distributed by G-vector(6-way) and k-point(32-way) and band(1-way)

Writing analysis data to ti64_hex_phonon_AlAl.castep_bin

Writing model to ti64_hex_phonon_AlAl.check
 Perturbation   33 (of   36): Ti    9 Z at q=( 0.000, 0.000, 0.000):  95043.81s
  Parallel strategy changed for perturbation using 96 k-points
  Data is distributed by G-vector(6-way) and k-point(32-way) and band(1-way)
 Perturbation   34 (of   36): Ti   10 X at q=( 0.000, 0.000, 0.000):  96020.62s
 Perturbation   35 (of   36): Ti   10 Y at q=( 0.000, 0.000, 0.000):  96984.10s
  Parallel strategy changed for perturbation using 189 k-points
  Data is distributed by G-vector(6-way) and k-point(32-way) and band(1-way)

Writing analysis data to ti64_hex_phonon_AlAl.castep_bin

Writing model to ti64_hex_phonon_AlAl.check
 Perturbation   36 (of   36): Ti   10 Z at q=( 0.000, 0.000, 0.000):  98802.29s
  Parallel strategy changed for perturbation using 96 k-points
  Data is distributed by G-vector(6-way) and k-point(32-way) and band(1-way)

 Phonon supercell    3 (of 7)      [  0  1  1;  0 -1  1;  1  0  0]:   99778.36s
 -------------------------------------------------------------------------------
 Perturbation    1 (of   36): Al    1 X at q=( 0.000, 0.000, 0.000):  99782.24s
  Parallel strategy changed for perturbation using 128 k-points
  Data is distributed by G-vector(6-way) and k-point(32-way) and band(1-way)
 Perturbation    2 (of   36): Al    1 Y at q=( 0.000, 0.000, 0.000): 100974.00s
  Parallel strategy changed for perturbation using 224 k-points
  Data is distributed by G-vector(6-way) and k-point(32-way) and band(1-way)

Writing analysis data to ti64_hex_phonon_AlAl.castep_bin

Writing model to ti64_hex_phonon_AlAl.check
 Perturbation    3 (of   36): Al    1 Z at q=( 0.000, 0.000, 0.000): 102881.64s
  Parallel strategy changed for perturbation using 128 k-points
  Data is distributed by G-vector(6-way) and k-point(32-way) and band(1-way)
 Perturbation    4 (of   36): Al    2 X at q=( 0.000, 0.000, 0.000): 104072.84s
 Perturbation    5 (of   36): Al    2 Y at q=( 0.000, 0.000, 0.000): 105255.49s
  Parallel strategy changed for perturbation using 224 k-points
  Data is distributed by G-vector(6-way) and k-point(32-way) and band(1-way)

Writing analysis data to ti64_hex_phonon_AlAl.castep_bin

Writing model to ti64_hex_phonon_AlAl.check
 Perturbation    6 (of   36): Al    2 Z at q=( 0.000, 0.000, 0.000): 107237.07s
  Parallel strategy changed for perturbation using 128 k-points
  Data is distributed by G-vector(6-way) and k-point(32-way) and band(1-way)
 Perturbation    7 (of   36): Ti    1 X at q=( 0.000, 0.000, 0.000): 108424.51s
 Perturbation    8 (of   36): Ti    1 Y at q=( 0.000, 0.000, 0.000): 109686.89s
  Parallel strategy changed for perturbation using 224 k-points
  Data is distributed by G-vector(6-way) and k-point(32-way) and band(1-way)

Writing analysis data to ti64_hex_phonon_AlAl.castep_bin

Writing model to ti64_hex_phonon_AlAl.check
 Perturbation    9 (of   36): Ti    1 Z at q=( 0.000, 0.000, 0.000): 111799.48s
  Parallel strategy changed for perturbation using 128 k-points
  Data is distributed by G-vector(6-way) and k-point(32-way) and band(1-way)
 Perturbation   10 (of   36): Ti    2 X at q=( 0.000, 0.000, 0.000): 113116.48s
 Perturbation   11 (of   36): Ti    2 Y at q=( 0.000, 0.000, 0.000): 114353.02s
  Parallel strategy changed for perturbation using 224 k-points
  Data is distributed by G-vector(6-way) and k-point(32-way) and band(1-way)

Writing analysis data to ti64_hex_phonon_AlAl.castep_bin

Writing model to ti64_hex_phonon_AlAl.check
 Perturbation   12 (of   36): Ti    2 Z at q=( 0.000, 0.000, 0.000): 116454.62s
  Parallel strategy changed for perturbation using 128 k-points
  Data is distributed by G-vector(6-way) and k-point(32-way) and band(1-way)
 Perturbation   13 (of   36): Ti    3 X at q=( 0.000, 0.000, 0.000): 117773.92s
 Perturbation   14 (of   36): Ti    3 Y at q=( 0.000, 0.000, 0.000): 119012.87s
  Parallel strategy changed for perturbation using 224 k-points
  Data is distributed by G-vector(6-way) and k-point(32-way) and band(1-way)

Writing analysis data to ti64_hex_phonon_AlAl.castep_bin

Writing model to ti64_hex_phonon_AlAl.check
 Perturbation   15 (of   36): Ti    3 Z at q=( 0.000, 0.000, 0.000): 121120.10s
  Parallel strategy changed for perturbation using 128 k-points
  Data is distributed by G-vector(6-way) and k-point(32-way) and band(1-way)
 Perturbation   16 (of   36): Ti    4 X at q=( 0.000, 0.000, 0.000): 122435.11s
 Perturbation   17 (of   36): Ti    4 Y at q=( 0.000, 0.000, 0.000): 123695.58s
  Parallel strategy changed for perturbation using 224 k-points
  Data is distributed by G-vector(6-way) and k-point(32-way) and band(1-way)

Writing analysis data to ti64_hex_phonon_AlAl.castep_bin

Writing model to ti64_hex_phonon_AlAl.check
 Perturbation   18 (of   36): Ti    4 Z at q=( 0.000, 0.000, 0.000): 125795.22s
  Parallel strategy changed for perturbation using 128 k-points
  Data is distributed by G-vector(6-way) and k-point(32-way) and band(1-way)
 Perturbation   19 (of   36): Ti    5 X at q=( 0.000, 0.000, 0.000): 127110.07s
 Perturbation   20 (of   36): Ti    5 Y at q=( 0.000, 0.000, 0.000): 128341.64s
  Parallel strategy changed for perturbation using 224 k-points
  Data is distributed by G-vector(6-way) and k-point(32-way) and band(1-way)

Writing analysis data to ti64_hex_phonon_AlAl.castep_bin

Writing model to ti64_hex_phonon_AlAl.check
 Perturbation   21 (of   36): Ti    5 Z at q=( 0.000, 0.000, 0.000): 130444.76s
  Parallel strategy changed for perturbation using 128 k-points
  Data is distributed by G-vector(6-way) and k-point(32-way) and band(1-way)
 Perturbation   22 (of   36): Ti    6 X at q=( 0.000, 0.000, 0.000): 131753.27s
 Perturbation   23 (of   36): Ti    6 Y at q=( 0.000, 0.000, 0.000): 133009.99s
  Parallel strategy changed for perturbation using 224 k-points
  Data is distributed by G-vector(6-way) and k-point(32-way) and band(1-way)

Writing analysis data to ti64_hex_phonon_AlAl.castep_bin

Writing model to ti64_hex_phonon_AlAl.check
 Perturbation   24 (of   36): Ti    6 Z at q=( 0.000, 0.000, 0.000): 135127.34s
  Parallel strategy changed for perturbation using 128 k-points
  Data is distributed by G-vector(6-way) and k-point(32-way) and band(1-way)
 Perturbation   25 (of   36): Ti    7 X at q=( 0.000, 0.000, 0.000): 136411.96s
 Perturbation   26 (of   36): Ti    7 Y at q=( 0.000, 0.000, 0.000): 137680.58s
  Parallel strategy changed for perturbation using 224 k-points
  Data is distributed by G-vector(6-way) and k-point(32-way) and band(1-way)

Writing analysis data to ti64_hex_phonon_AlAl.castep_bin

Writing model to ti64_hex_phonon_AlAl.check
 Perturbation   27 (of   36): Ti    7 Z at q=( 0.000, 0.000, 0.000): 139795.26s
  Parallel strategy changed for perturbation using 128 k-points
  Data is distributed by G-vector(6-way) and k-point(32-way) and band(1-way)
 Perturbation   28 (of   36): Ti    8 X at q=( 0.000, 0.000, 0.000): 141115.83s
 Perturbation   29 (of   36): Ti    8 Y at q=( 0.000, 0.000, 0.000): 142371.19s
  Parallel strategy changed for perturbation using 224 k-points
  Data is distributed by G-vector(6-way) and k-point(32-way) and band(1-way)

Writing analysis data to ti64_hex_phonon_AlAl.castep_bin

Writing model to ti64_hex_phonon_AlAl.check
 Perturbation   30 (of   36): Ti    8 Z at q=( 0.000, 0.000, 0.000): 144471.68s
  Parallel strategy changed for perturbation using 128 k-points
  Data is distributed by G-vector(6-way) and k-point(32-way) and band(1-way)
 Perturbation   31 (of   36): Ti    9 X at q=( 0.000, 0.000, 0.000): 145789.87s
 Perturbation   32 (of   36): Ti    9 Y at q=( 0.000, 0.000, 0.000): 147047.89s
  Parallel strategy changed for perturbation using 224 k-points
  Data is distributed by G-vector(6-way) and k-point(32-way) and band(1-way)

Writing analysis data to ti64_hex_phonon_AlAl.castep_bin

Writing model to ti64_hex_phonon_AlAl.check
 Perturbation   33 (of   36): Ti    9 Z at q=( 0.000, 0.000, 0.000): 149160.18s
  Parallel strategy changed for perturbation using 128 k-points
  Data is distributed by G-vector(6-way) and k-point(32-way) and band(1-way)
 Perturbation   34 (of   36): Ti   10 X at q=( 0.000, 0.000, 0.000): 150469.66s
 Perturbation   35 (of   36): Ti   10 Y at q=( 0.000, 0.000, 0.000): 151710.94s
  Parallel strategy changed for perturbation using 224 k-points
  Data is distributed by G-vector(6-way) and k-point(32-way) and band(1-way)

Writing analysis data to ti64_hex_phonon_AlAl.castep_bin

Writing model to ti64_hex_phonon_AlAl.check
 Perturbation   36 (of   36): Ti   10 Z at q=( 0.000, 0.000, 0.000): 153825.17s
  Parallel strategy changed for perturbation using 128 k-points
  Data is distributed by G-vector(6-way) and k-point(32-way) and band(1-way)

 Phonon supercell    4 (of 7)      [  0  1  0;  0  0  1;  2  0  0]:  155139.73s
 -------------------------------------------------------------------------------
 Perturbation    1 (of   36): Al    1 X at q=( 0.000, 0.000, 0.000): 155143.63s
  Parallel strategy changed for perturbation using 108 k-points
  Data is distributed by G-vector(6-way) and k-point(32-way) and band(1-way)
 Perturbation    2 (of   36): Al    1 Y at q=( 0.000, 0.000, 0.000): 156458.89s
  Parallel strategy changed for perturbation using 198 k-points
  Data is distributed by G-vector(6-way) and k-point(32-way) and band(1-way)
  +---------------- MEMORY AND SCRATCH DISK ESTIMATES PER PROCESS --------------+
  |                                                     Memory          Disk    |
  | Baseline code, static data and system overhead      591.0 MB         0.0 MB |
  | BLAS internal memory storage                          0.0 MB         0.0 MB |
  | Model and support data                              924.5 MB         0.0 MB |
  | Finite displacement phonon requirements             292.0 MB         0.0 MB |
  |                                               ----------------------------- |
  | Approx. total storage required per process         1807.5 MB         0.0 MB |
  |                                                                             |
  | Requirements will fluctuate during execution and may exceed these estimates |
  +-----------------------------------------------------------------------------+

Writing analysis data to ti64_hex_phonon_AlAl.castep_bin

Writing model to ti64_hex_phonon_AlAl.check
 Perturbation    3 (of   36): Al    1 Z at q=( 0.000, 0.000, 0.000): 158182.91s
  Parallel strategy changed for perturbation using 108 k-points
  Data is distributed by G-vector(6-way) and k-point(32-way) and band(1-way)
 Perturbation    4 (of   36): Al    2 X at q=( 0.000, 0.000, 0.000): 159391.14s
 Perturbation    5 (of   36): Al    2 Y at q=( 0.000, 0.000, 0.000): 160696.87s
  Parallel strategy changed for perturbation using 198 k-points
  Data is distributed by G-vector(6-way) and k-point(32-way) and band(1-way)

Writing analysis data to ti64_hex_phonon_AlAl.castep_bin

Writing model to ti64_hex_phonon_AlAl.check
 Perturbation    6 (of   36): Al    2 Z at q=( 0.000, 0.000, 0.000): 162487.71s
  Parallel strategy changed for perturbation using 108 k-points
  Data is distributed by G-vector(6-way) and k-point(32-way) and band(1-way)
 Perturbation    7 (of   36): Ti    1 X at q=( 0.000, 0.000, 0.000): 163725.94s
 Perturbation    8 (of   36): Ti    1 Y at q=( 0.000, 0.000, 0.000): 165118.10s
  Parallel strategy changed for perturbation using 198 k-points
  Data is distributed by G-vector(6-way) and k-point(32-way) and band(1-way)

Writing analysis data to ti64_hex_phonon_AlAl.castep_bin

Writing model to ti64_hex_phonon_AlAl.check
 Perturbation    9 (of   36): Ti    1 Z at q=( 0.000, 0.000, 0.000): 167101.04s
  Parallel strategy changed for perturbation using 108 k-points
  Data is distributed by G-vector(6-way) and k-point(32-way) and band(1-way)
 Perturbation   10 (of   36): Ti    2 X at q=( 0.000, 0.000, 0.000): 168439.49s
 Perturbation   11 (of   36): Ti    2 Y at q=( 0.000, 0.000, 0.000): 169836.95s
  Parallel strategy changed for perturbation using 198 k-points
  Data is distributed by G-vector(6-way) and k-point(32-way) and band(1-way)

Writing analysis data to ti64_hex_phonon_AlAl.castep_bin

Writing model to ti64_hex_phonon_AlAl.check
 Perturbation   12 (of   36): Ti    2 Z at q=( 0.000, 0.000, 0.000): 171806.87s
  Parallel strategy changed for perturbation using 108 k-points
  Data is distributed by G-vector(6-way) and k-point(32-way) and band(1-way)
 +-------------------------------------------------+
 |                                                 |
 |      CCC   AA    SSS  TTTTT  EEEEE  PPPP        |
 |     C     A  A  S       T    E      P   P       |
 |     C     AAAA   SS     T    EEE    PPPP        |
 |     C     A  A     S    T    E      P           |
 |      CCC  A  A  SSS     T    EEEEE  P           |
 |                                                 |
 +-------------------------------------------------+
 |                                                 |
 | Welcome to Academic Release CASTEP version 24.1 |
 | Ab Initio Total Energy Program                  |
 |                                                 |
 | Authors:                                        |
 | M. Segall, M. Probert, C. Pickard, P. Hasnip,   |
 | S. Clark, K. Refson, J. R. Yates,               |
 | A. Bartok-Partay, M. Payne                      |
 |                                                 |
 | Contributors:                                   |
 | P. Lindan, P. Haynes, J. White, V. Milman,      |
 | N. Govind, M. Gibson, P. Tulip, V. Cocula,      |
 | B. Montanari, D. Quigley, M. Glover,            |
 | L. Bernasconi, A. Perlov, M. Plummer,           |
 | E. McNellis, J. Meyer, J. Gale, D. Jochym       |
 | J. Aarons, B. Walker, R. Gillen, D. Jones       |
 | T. Green, I. J. Bush, C. J. Armstrong,          |
 | E. J. Higgins, E. L. Brown, M. S. McFly,        |
 | J. Wilkins, B-C. Shih, P. J. P. Byrne,          |
 | R. J. Maurer, J. C. Womack, J. Dziedzic,        |
 | L. LeBlanc, T. K. Stenczel, J. Kermode,         |
 | S. Sturniolo, B. Shi, B. Durham, M. Evans,      |
 | M. J. Smith, A. Tamerus, Z. Hawkhead,           |
 | V. Ravindran, T. Hollins, S. A. Joyce,          |
 | R. T. Strong, A. M. Reilly                      |
 |                                                 |
 | Copyright (c) 2000 - 2023                       |
 |                                                 |
 |     Distributed under license from Cambridge    |
 |     Enterprise for academic use only.           |
 |                                                 |
 | Please cite                                     |
 |                                                 |
 |     "First principles methods using CASTEP"     |
 |                                                 |
 |         Zeitschrift fuer Kristallographie       |
 |           220(5-6) pp. 567-570 (2005)           |
 |                                                 |
 | S. J. Clark, M. D. Segall, C. J. Pickard,       |
 | P. J. Hasnip, M. J. Probert, K. Refson,         |
 | M. C. Payne                                     |
 |                                                 |
 |       in all publications arising from          |
 |              your use of CASTEP                 |
 |                                                 |
 +-------------------------------------------------+
 |                                                 |
 |              http://www.castep.org              |
 |                                                 |
 +-------------------------------------------------+



 Compiled for linux_x86_64_gfortran10 on Tue, 02 May 2023 15:31:46 +0100
 from code version db08e394c+  default  Mon May 1 16:40:39 2023 +0100
 Compiler: GNU Fortran 10.2.0; Optimisation: fast
 Comms   : Open MPI v4.0.5
 MATHLIBS: openblas (LAPACK version 3.9.0)
 FFT Lib : fftw3 version fftw-3.3.8-sse2-avx-avx2-avx2_128
 Fundamental constants values: CODATA 2018

 Run started: Wed, 15 May 2024 15:42:33 +0100
 +-------------------------------------------------+
 |                                                 |
 |  D D D D    F F F F F  P P P P     T T T T T    |
 |  D       D  F          P       P       T        |
 |  D       D  F F F F    P P P P         T        |
 |  D       D  F          P               T        |
 |  D D D D    F          P               T        |
 |                                                 |
 +-------------------------------------------------+
 |                                                 |
 | Welcome to Castep Linear Response (DFPT)        |
 |                                                 |
 | Copyright (c) 2006 - 2023                       |
 |                                                 |
 | Please cite the following publications in all   |
 | work arising from your use of CASTEP LR.        |
 |                                                 |
 | K. Refson, S. J. Clark and P. R. Tulip          |
 | Variational density functional perturbation     |
 | theory for dielectrics and lattice dynamics     |
 | Phys. Rev. B 73(15), 155114 (2006)              |
 +-------------------------------------------------+

Reading continuation data from model file ti64_hex_phonon_AlAl.check

 Atomic calculation performed for Al: 1s2 2s2 2p6 3s2 3p1

 Converged in 54 iterations to an ae energy of -6603.783 eV

   ============================================================                
   | Pseudopotential Report - Date of generation 15-05-2024   |                
   ------------------------------------------------------------                
   | Element: Al Ionic charge:  3.00 Level of theory: PBE     |                
   | Atomic Solver: Koelling-Harmon                           |                
   |                                                          |                
   |               Reference Electronic Structure             |                
   |         Orbital         Occupation         Energy        |                
   |            3s              2.000           -0.285        |                
   |            3p              1.000           -0.100        |                
   |                                                          |                
   |                 Pseudopotential Definition               |                
   |        Beta     l      e      Rc     scheme   norm       |                
   |          1      0   -0.285   2.192     qc      0         |                
   |          2      0    0.250   2.192     qc      0         |                
   |          3      1   -0.100   2.192     qc      0         |                
   |          4      1    0.250   2.192     qc      0         |                
   |          5      2    0.000   2.000     qc      0         |                
   |          6      2    0.250   2.000     qc      0         |                
   |         loc     3    0.000   2.192     pn      0         |                
   |                                                          |                
   | Augmentation charge Rinner = 1.398                       |                
   | Partial core correction Rc = 1.398                       |                
   ------------------------------------------------------------                
   | "3|2.2|2.2|1.4|4|5|5|30:31:32U2U2"                       |                
   ------------------------------------------------------------                
   |      Author: Chris J. Pickard, Cambridge University      |                
   ============================================================                

 Atomic calculation performed for Ti: 1s2 2s2 2p6 3s2 3p6 3d2 4s2

 Converged in 79 iterations to an ae energy of -23226.658 eV

   ============================================================                
   | Pseudopotential Report - Date of generation 15-05-2024   |                
   ------------------------------------------------------------                
   | Element: Ti Ionic charge: 12.00 Level of theory: PBE     |                
   | Atomic Solver: Koelling-Harmon                           |                
   |                                                          |                
   |               Reference Electronic Structure             |                
   |         Orbital         Occupation         Energy        |                
   |            3s              2.000           -2.302        |                
   |            3p              6.000           -1.428        |                
   |            4s              2.000           -0.164        |                
   |            3d              2.000           -0.157        |                
   |                                                          |                
   |                 Pseudopotential Definition               |                
   |        Beta     l      e      Rc     scheme   norm       |                
   |          1      0   -2.302   1.793     qc      0         |                
   |          2      0   -0.164   1.793     qc      0         |                
   |          3      0    0.250   1.793     qc      0         |                
   |          4      1   -1.428   1.793     qc      0         |                
   |          5      1    0.250   1.793     qc      0         |                
   |          6      2   -0.157   1.793     qc      0         |                
   |          7      2    0.250   1.793     qc      0         |                
   |         loc     3    0.000   1.793     pn      0         |                
   |                                                          |                
   | Augmentation charge Rinner = 1.263                       |                
   | Partial core correction Rc = 1.263                       |                
   ------------------------------------------------------------                
   | "3|1.8|9|10|11|30U:40:31:32(qc=5.5)"                     |                
   ------------------------------------------------------------                
   |      Author: Chris J. Pickard, Cambridge University      |                
   ============================================================                

 Pseudo atomic calculation performed for Al 3s2 3p1

 Converged in 22 iterations to a total energy of -107.1308 eV

 Pseudo atomic calculation performed for Ti 3s2 3p6 3d2 4s2

 Converged in 51 iterations to a total energy of -1587.0236 eV
Initialising basis set for model.
Reinitialising basis set for current geometry.
Continuing from previous run with ground state wavefunction.
Continuing from previous run with ground state density.
 Calculation parallelised over 384 processes.
 Data is distributed by G-vector(12-way) and k-point(32-way)

 ************************************ Title ************************************
 

 ***************************** General Parameters ******************************
  
 output verbosity                               : normal  (1)
 continuing from                                : ti64_hex_phonon_AlAl.check
 write checkpoint data to                       : ti64_hex_phonon_AlAl.check
 type of calculation                            : phonon calculation
 stress calculation                             : on
 density difference calculation                 : off
 electron localisation func (ELF) calculation   : off
 Hirshfeld analysis                             : off
 polarisation (Berry phase) analysis            : off
 molecular orbital projected DOS                : off
 deltaSCF calculation                           : off
 unlimited duration calculation
 timing information                             : on
 memory usage estimate                          : on
 write extra output files                       : on
 write final potential to formatted file        : off
 write final density to formatted file          : off
 write structure in CELL formatted file         : on
 write BibTeX reference list                    : on
 write OTFG pseudopotential files               : on
 write electrostatic potential file             : on
 write bands file                               : on
 checkpoint writing                             : both castep_bin and check files
  
 output         length unit                     : A
 output           mass unit                     : amu
 output           time unit                     : ps
 output         charge unit                     : e
 output           spin unit                     : hbar/2
 output         energy unit                     : eV
 output          force unit                     : eV/A
 output       velocity unit                     : A/ps
 output       pressure unit                     : GPa
 output     inv_length unit                     : 1/A
 output      frequency unit                     : THz
 output force constant unit                     : eV/A**2
 output         volume unit                     : A**3
 output   IR intensity unit                     : (D/A)**2/amu
 output         dipole unit                     : D
 output         efield unit                     : eV/A/e
 output        entropy unit                     : J/mol/K
 output    efield chi2 unit                     : pm/V
  
 wavefunctions paging                           : none
 random number generator seed                   :  151019812
 data distribution                              : k-point only
 optimization strategy                          : maximize speed(+++)

 *********************** Exchange-Correlation Parameters ***********************
  
 using functional                               : Perdew Burke Ernzerhof
 relativistic treatment                         : Koelling-Harmon
 DFT+D: Semi-empirical dispersion correction    : off

 ************************* Pseudopotential Parameters **************************
  
 pseudopotential representation                 : reciprocal space
 <beta|phi> representation                      : reciprocal space
 spin-orbit coupling                            : off

 **************************** Basis Set Parameters *****************************
  
 plane wave basis set cut-off                   :   800.0000   eV
 size of standard grid                          :     2.0000
 size of   fine   grid                          :     4.0000
 size of   fine   gmax                          :    57.9620   1/A
 largest prime factor in FFT                    :          5
 finite basis set correction                    : automatic
 number of sample energies                      :          3
           sample  spacing                      :     5.0000   eV

 **************************** Electronic Parameters ****************************
  
 number of  electrons                           :  126.0    
 net charge of system                           :  0.000    
 treating system as non-spin-polarized
 number of bands                                :         98

 ********************* Electronic Minimization Parameters **********************
  
 Method: Treating system as metallic with density mixing treatment of electrons,
         and number of  SD  steps               :          1
         and number of  CG  steps               :          4
  
 total energy / atom convergence tol.           : 0.1000E-08   eV
 eigen-energy convergence tolerance             : 0.1224E-09   eV
 max force / atom convergence tol.              : ignored
 convergence tolerance window                   :          3   cycles
 max. number of SCF cycles                      :         30
 number of fixed-spin iterations                :         10
 smearing scheme                                : Gaussian
 smearing width                                 : 0.5000E-01   eV
 Fermi energy convergence tolerance             : 0.2721E-13   eV
 periodic dipole correction                     : NONE

 ************************** Density Mixing Parameters **************************
  
 density-mixing scheme                          : Pulay
 max. length of mixing history                  :         20
 charge density mixing amplitude                : 0.8000    
 cut-off energy for mixing                      :  800.0       eV
 charge density mixing g-vector                 :  1.500       1/A

 *********************** Population Analysis Parameters ************************
  
 Population analysis with cutoff                :  3.000       A
 Population analysis output                     : summary and pdos components

 ****************************** Phonon Parameters ******************************
  
 phonon calculation method                      : finite displacement
 finite displacement amplitude                  : 0.1000E-01   A
 fine phonon calculation method                 : interpolation
 non-periodic force constant method             : Weighted cumulant sum
 force constant cutoff scale factor             :     1.0000
 LO/TO splitting term                           : not included
 acoustic phonon sum rule                       : correct D(q) in recip-space
 Born effective charges                         : not calculated
 Raman intensities                              : not calculated
 phonon extra output                            : real-space force constants
 phonon k-points                                : use reduced set
 phonon DOS                                     : not calculated
 backups results every                          :       3600   seconds
 band convergence tolerance                     : 0.1000E-08   eV

 ******************************* Developer Code ********************************
  
 PARALLEL: kpoints=64 : ENDPARALLEL
 PHONON: DENSITY_SCHEME=NONE FD_WVFN_SCHEME=NONE COMMS_REASSIGN=F : ENDPHONON
 no_improve_wvfn

 *******************************************************************************
  

                           -------------------------------
                                      Unit Cell
                           -------------------------------
        Real Lattice(A)                      Reciprocal Lattice(1/A)
     7.9236800     0.0000000     0.0000000        0.792963031  -0.000000000  -0.000000000
     0.0000000     4.5747390     0.0000000        0.000000000   1.373452192  -0.000000000
     0.0000000     0.0000000     5.5908970        0.000000000   0.000000000   1.123824193

                       Lattice parameters(A)       Cell Angles
                    a =      7.923680          alpha =   90.000000
                    b =      4.574739          beta  =   90.000000
                    c =      5.590897          gamma =   90.000000

                       Current cell volume =           202.663128       A**3
[...]
 +    10       4.529891   b                                                   + 
 +    11       4.663701   b                                                   + 
 +    12       4.759713   a                                                   + 
 +    13       4.838552   b                                                   + 
 +    14       4.983712   b                                                   + 
 +    15       5.019532   a                                                   + 
 +    16       5.289810   b                                                   + 
 +    17       5.547587   b                                                   + 
 +    18       5.714227   b                                                   + 
 +    19       5.813904   b                                                   + 
 +    20       5.978514   b                                                   + 
 +    21       6.150181   b                                                   + 
 +    22       6.186676   a                                                   + 
 +    23       6.280868   b                                                   + 
 +    24       6.585501   b                                                   + 
 +    25       6.705042   a                                                   + 
 +    26       6.882810   b                                                   + 
 +    27       7.107754   b                                                   + 
 +    28       7.191395   b                                                   + 
 +    29       7.259660   a                                                   + 
 +    30       7.343542   b                                                   + 
 +    31       7.479399   b                                                   + 
 +    32       7.663937   b                                                   + 
 +    33       7.983089   b                                                   + 
 +    34       8.732843   b                                                   + 
 +    35       9.288771   b                                                   + 
 +    36       9.624708   a                                                   + 
 + .......................................................................... +
 +        Character table from group theory analysis of eigenvectors          +
 +                           Point Group =   3, Cs                            +
 + .......................................................................... +
 +  Rep  Mul |    E   m                                                       +
 +           | --------                                                       +
 + a      12 |    1  -1                                                       +
 + b      24 |    1   1                                                       +
 + -------------------------------------------------------------------------- +
 +  q-pt=   22 (  0.000000  0.000000  0.500000)     0.0454545455              +
 + -------------------------------------------------------------------------- +
 +  Acoustic sum rule correction <   0.000594 THz applied                     +
 +     N      Frequency irrep.                                                + 
 +                 (THz)                                                      + 
 +                                                                            +
 +     1       2.194695   a                                                   + 
 +     2       2.438381   a                                                   + 
 +     3       2.440520   b                                                   + 
 +     4       2.548553   b                                                   + 
 +     5       2.647033   a                                                   + 
 +     6       3.224945   a                                                   + 
 +     7       3.364020   b                                                   + 
 +     8       3.569919   a                                                   + 
 +     9       3.812490   a                                                   + 
 +    10       4.632830   b                                                   + 
 +    11       4.723188   b                                                   + 
 +    12       4.759360   a                                                   + 
 +    13       4.886523   b                                                   + 
 +    14       4.991641   a                                                   + 
 +    15       5.299772   b                                                   + 
 +    16       5.482357   b                                                   + 
 +    17       5.588733   b                                                   + 
 +    18       5.812047   b                                                   + 
 +    19       5.869730   b                                                   + 
 +    20       6.054493   b                                                   + 
 +    21       6.238729   a                                                   + 
 +    22       6.268272   b                                                   + 
 +    23       6.361868   b                                                   + 
 +    24       6.513744   b                                                   + 
 +    25       6.649473   b                                                   + 
 +    26       6.655739   a                                                   + 
 +    27       6.845123   b                                                   + 
 +    28       7.159921   b                                                   + 
 +    29       7.263446   a                                                   + 
 +    30       7.311622   b                                                   + 
 +    31       7.472473   b                                                   + 
 +    32       7.654706   b                                                   + 
 +    33       7.745716   b                                                   + 
 +    34       8.643470   b                                                   + 
 +    35       9.286643   b                                                   + 
 +    36       9.626758   a                                                   + 
 + .......................................................................... +
 +        Character table from group theory analysis of eigenvectors          +
 +                           Point Group =   3, Cs                            +
 + .......................................................................... +
 +  Rep  Mul |    E   m                                                       +
 +           | --------                                                       +
 + a      12 |    1  -1                                                       +
 + b      24 |    1   1                                                       +
 ==============================================================================

 ******************** Symmetrised Forces ********************
 *                                                          *
 *               Cartesian components (eV/A)                *
 * -------------------------------------------------------- *
 *                         x            y            z      *
 *                                                          *
 * Al              1     -0.00367      0.00000      0.00027 *
 * Al              2      0.00885      0.00000      0.06591 *
 * Ti              1      0.00080      0.00000     -0.03826 *
 * Ti              2     -0.00276      0.00000     -0.00486 *
 * Ti              3      0.00041      0.00000     -0.00609 *
 * Ti              4      0.00981      0.00000     -0.01829 *
 * Ti              5     -0.00318      0.00000      0.00083 *
 * Ti              6     -0.00516      0.00000      0.05214 *
 * Ti              7     -0.00562      0.00000     -0.03355 *
 * Ti              8      0.01016      0.00000     -0.00571 *
 * Ti              9     -0.00467      0.00000      0.00042 *
 * Ti             10     -0.00497      0.00000     -0.01280 *
 *                                                          *
 ************************************************************

 *********** Symmetrised Stress Tensor ***********
 *                                               *
 *          Cartesian components (GPa)           *
 * --------------------------------------------- *
 *             x             y             z     *
 *                                               *
 *  x     -0.480661      0.000000     -0.020386  *
 *  y      0.000000      0.479716      0.000000  *
 *  z     -0.020386      0.000000     -0.000249  *
 *                                               *
 *  Pressure:    0.0004                          *
 *                                               *
 *************************************************

 Pseudo atomic calculation performed for Al 3s2 3p1

 Converged in 22 iterations to a total energy of -107.1308 eV

 Pseudo atomic calculation performed for Ti 3s2 3p6 3d2 4s2

 Converged in 51 iterations to a total energy of -1587.0236 eV
Charge spilling parameter for spin component 1 = 0.10%

            Orbital Populations       
     Ion    Atom   Orbital             Charge
  -------------------------------------------
     Al     1      S                    0.926
     Al     1      Px                   0.667
     Al     1      Py                   0.643
     Al     1      Pz                   0.689
     Al     2      S                    0.981
     Al     2      Px                   0.725
     Al     2      Py                   0.675
     Al     2      Pz                   0.661
     Ti     1      S                    2.005
     Ti     1      Px                   2.006
     Ti     1      Py                   2.009
     Ti     1      Pz                   2.006
     Ti     1      S                    0.274
     Ti     1      Dzz                  0.650
     Ti     1      Dzy                  0.519
     Ti     1      Dzx                  0.501
     Ti     1      Dxx-yy               0.550
     Ti     1      Dxy                  0.594
     Ti     1      Px                   0.301
     Ti     1      Py                   0.261
     Ti     1      Pz                   0.364
     Ti     2      S                    2.000
     Ti     2      Px                   2.003
     Ti     2      Py                   2.003
     Ti     2      Pz                   2.004
     Ti     2      S                    0.314
     Ti     2      Dzz                  0.490
     Ti     2      Dzy                  0.577
     Ti     2      Dzx                  0.589
     Ti     2      Dxx-yy               0.452
     Ti     2      Dxy                  0.513
     Ti     2      Px                   0.340
     Ti     2      Py                   0.352
     Ti     2      Pz                   0.331
     Ti     3      S                    2.004
     Ti     3      Px                   2.007
     Ti     3      Py                   2.006
     Ti     3      Pz                   2.006
     Ti     3      S                    0.262
     Ti     3      Dzz                  0.597
     Ti     3      Dzy                  0.504
     Ti     3      Dzx                  0.499
     Ti     3      Dxx-yy               0.585
     Ti     3      Dxy                  0.603
     Ti     3      Px                   0.309
     Ti     3      Py                   0.340
     Ti     3      Pz                   0.326
     Ti     4      S                    2.004
     Ti     4      Px                   2.007
     Ti     4      Py                   2.006
     Ti     4      Pz                   2.005
     Ti     4      S                    0.273
     Ti     4      Dzz                  0.598
     Ti     4      Dzy                  0.530
     Ti     4      Dzx                  0.553
     Ti     4      Dxx-yy               0.620
     Ti     4      Dxy                  0.499
     Ti     4      Px                   0.278
     Ti     4      Py                   0.279
     Ti     4      Pz                   0.348
     Ti     5      S                    2.001
     Ti     5      Px                   2.003
     Ti     5      Py                   2.003
     Ti     5      Pz                   2.006
     Ti     5      S                    0.314
     Ti     5      Dzz                  0.475
     Ti     5      Dzy                  0.623
     Ti     5      Dzx                  0.643
     Ti     5      Dxx-yy               0.460
     Ti     5      Dxy                  0.477
     Ti     5      Px                   0.362
     Ti     5      Py                   0.303
     Ti     5      Pz                   0.294
     Ti     6      S                    2.003
     Ti     6      Px                   2.006
     Ti     6      Py                   2.006
     Ti     6      Pz                   2.006
     Ti     6      S                    0.280
     Ti     6      Dzz                  0.543
     Ti     6      Dzy                  0.519
     Ti     6      Dzx                  0.559
     Ti     6      Dxx-yy               0.617
     Ti     6      Dxy                  0.583
     Ti     6      Px                   0.353
     Ti     6      Py                   0.300
     Ti     6      Pz                   0.231
     Ti     7      S                    2.004
     Ti     7      Px                   2.006
     Ti     7      Py                   2.007
     Ti     7      Pz                   2.006
     Ti     7      S                    0.284
     Ti     7      Dzz                  0.610
     Ti     7      Dzy                  0.456
     Ti     7      Dzx                  0.478
     Ti     7      Dxx-yy               0.586
     Ti     7      Dxy                  0.615
     Ti     7      Px                   0.291
     Ti     7      Py                   0.299
     Ti     7      Pz                   0.326
     Ti     8      S                    2.001
     Ti     8      Px                   2.004
     Ti     8      Py                   2.003
     Ti     8      Pz                   2.005
     Ti     8      S                    0.306
     Ti     8      Dzz                  0.487
     Ti     8      Dzy                  0.613
     Ti     8      Dzx                  0.606
     Ti     8      Dxx-yy               0.481
     Ti     8      Dxy                  0.452
     Ti     8      Px                   0.322
     Ti     8      Py                   0.381
     Ti     8      Pz                   0.332
     Ti     9      S                    2.004
     Ti     9      Px                   2.007
     Ti     9      Py                   2.007
     Ti     9      Pz                   2.006
     Ti     9      S                    0.271
     Ti     9      Dzz                  0.570
     Ti     9      Dzy                  0.518
     Ti     9      Dzx                  0.500
     Ti     9      Dxx-yy               0.602
     Ti     9      Dxy                  0.621
     Ti     9      Px                   0.296
     Ti     9      Py                   0.309
     Ti     9      Pz                   0.340
     Ti    10      S                    2.004
     Ti    10      Px                   2.007
     Ti    10      Py                   2.006
     Ti    10      Pz                   2.006
     Ti    10      S                    0.278
     Ti    10      Dzz                  0.592
     Ti    10      Dzy                  0.504
     Ti    10      Dzx                  0.504
     Ti    10      Dxx-yy               0.622
     Ti    10      Dxy                  0.557
     Ti    10      Px                   0.304
     Ti    10      Py                   0.289
     Ti    10      Pz                   0.320
  -------------------------------------------
                           Total:     126.000
  -------------------------------------------

     Atomic Populations (Mulliken)
     -----------------------------
Species          Ion     s       p       d       f      Total   Charge (e)
==========================================================================
  Al              1     0.926   1.999   0.000   0.000   2.925     0.075
  Al              2     0.981   2.061   0.000   0.000   3.042    -0.042
  Ti              1     2.279   6.946   2.814   0.000  12.038    -0.038
  Ti              2     2.314   7.033   2.622   0.000  11.969     0.031
  Ti              3     2.266   6.994   2.788   0.000  12.047    -0.047
  Ti              4     2.276   6.923   2.800   0.000  11.999     0.001
  Ti              5     2.316   6.972   2.679   0.000  11.966     0.034
  Ti              6     2.283   6.901   2.821   0.000  12.005    -0.005
  Ti              7     2.288   6.934   2.746   0.000  11.968     0.032
  Ti              8     2.306   7.046   2.639   0.000  11.992     0.008
  Ti              9     2.275   6.966   2.812   0.000  12.054    -0.054
  Ti             10     2.283   6.932   2.780   0.000  11.995     0.005
==========================================================================

                 Bond                   Population      Length (A)
======================================================================
             Ti 9  -- Ti 10                  0.65        2.60008
             Ti 7  -- Ti 9                   0.10        2.62391
             Ti 3  -- Ti 4                   0.45        2.63415
             Ti 1  -- Ti 3                   0.11        2.63687
              Al 2 -- Ti 1                   0.78        2.63972
              Al 2 -- Ti 4                   0.34        2.67635
             Ti 6  -- Ti 7                   0.53        2.67726
             Ti 6  -- Ti 10                  0.23        2.68557
              Al 1 -- Ti 5                   0.53        2.74605
              Al 2 -- Ti 6                   0.32        2.77827
             Ti 2  -- Ti 8                   0.44        2.77914
             Ti 1  -- Ti 7                  -0.05        2.77981
             Ti 3  -- Ti 9                  -0.24        2.79031
             Ti 4  -- Ti 10                 -0.01        2.79182
              Al 2 -- Ti 8                   0.26        2.89228
             Ti 8  -- Ti 10                  0.18        2.91982
              Al 1 -- Ti 6                   0.33        2.93455
             Ti 7  -- Ti 8                   0.02        2.93955
             Ti 1  -- Ti 2                   0.13        2.94526
              Al 1 -- Ti 9                   0.17        2.94626
             Ti 2  -- Ti 10                  0.22        2.95847
             Ti 5  -- Ti 9                   0.23        2.96019
             Ti 3  -- Ti 5                   0.23        2.96295
              Al 1 -- Ti 4                   0.31        2.97028
              Al 1 -- Ti 3                   0.21        2.97415
             Ti 2  -- Ti 4                   0.11        2.97711
             Ti 2  -- Ti 6                   0.10        2.97850
              Al 2 -- Ti 5                   0.28        2.98052
             Ti 5  -- Ti 10                 -0.02        2.98117
             Ti 5  -- Ti 7                   0.22        2.98726
              Al 2 -- Ti 2                   0.25        2.98911
             Ti 1  -- Ti 8                   0.08        2.98968
             Ti 2  -- Ti 9                   0.12        2.99376
             Ti 3  -- Ti 8                   0.07        2.99689
======================================================================


Writing analysis data to ti64_hex_phonon_AlAl.castep_bin

Writing model to ti64_hex_phonon_AlAl.check
 
 A BibTeX formatted list of references used in this run has been written to 
 ti64_hex_phonon_AlAl.bib
 
Initialisation time =     17.25 s
Calculation time    = 118883.16 s
Finalisation time   =      3.07 s
Total time          = 118903.49 s
Peak Memory Use     = 2274088 kB
 
Overall parallel efficiency rating: Mediocre (58%)
 
Data was distributed by:-
G-vector (12-way); efficiency rating: Mediocre (59%)
k-point (32-way); efficiency rating: Excellent (98%)
