 +-------------------------------------------------+
 |                                                 |
 |      CCC   AA    SSS  TTTTT  EEEEE  PPPP        |
 |     C     A  A  S       T    E      P   P       |
 |     C     AAAA   SS     T    EEE    PPPP        |
 |     C     A  A     S    T    E      P           |
 |      CCC  A  A  SSS     T    EEEEE  P           |
 |                                                 |
 +-------------------------------------------------+
 |                                                 |
 | Welcome to Academic Release CASTEP version 24.1 |
 | Ab Initio Total Energy Program                  |
 |                                                 |
 | Authors:                                        |
 | M. Segall, M. Probert, C. Pickard, P. Hasnip,   |
 | S. Clark, K. Refson, J. R. Yates,               |
 | A. Bartok-Partay, M. Payne                      |
 |                                                 |
 | Contributors:                                   |
 | P. Lindan, P. Haynes, J. White, V. Milman,      |
 | N. Govind, M. Gibson, P. Tulip, V. Cocula,      |
 | B. Montanari, D. Quigley, M. Glover,            |
 | L. Bernasconi, A. Perlov, M. Plummer,           |
 | E. McNellis, J. Meyer, J. Gale, D. Jochym       |
 | J. Aarons, B. Walker, R. Gillen, D. Jones       |
 | T. Green, I. J. Bush, C. J. Armstrong,          |
 | E. J. Higgins, E. L. Brown, M. S. McFly,        |
 | J. Wilkins, B-C. Shih, P. J. P. Byrne,          |
 | R. J. Maurer, J. C. Womack, J. Dziedzic,        |
 | L. LeBlanc, T. K. Stenczel, J. Kermode,         |
 | S. Sturniolo, B. Shi, B. Durham, M. Evans,      |
 | M. J. Smith, A. Tamerus, Z. Hawkhead,           |
 | V. Ravindran, T. Hollins, S. A. Joyce,          |
 | R. T. Strong, A. M. Reilly                      |
 |                                                 |
 | Copyright (c) 2000 - 2023                       |
 |                                                 |
 |     Distributed under license from Cambridge    |
 |     Enterprise for academic use only.           |
 |                                                 |
 | Please cite                                     |
 |                                                 |
 |     "First principles methods using CASTEP"     |
 |                                                 |
 |         Zeitschrift fuer Kristallographie       |
 |           220(5-6) pp. 567-570 (2005)           |
 |                                                 |
 | S. J. Clark, M. D. Segall, C. J. Pickard,       |
 | P. J. Hasnip, M. J. Probert, K. Refson,         |
 | M. C. Payne                                     |
 |                                                 |
 |       in all publications arising from          |
 |              your use of CASTEP                 |
 |                                                 |
 +-------------------------------------------------+
 |                                                 |
 |              http://www.castep.org              |
 |                                                 |
 +-------------------------------------------------+



 Compiled for linux_x86_64_gfortran10 on Tue, 02 May 2023 15:31:46 +0100
 from code version db08e394c+  default  Mon May 1 16:40:39 2023 +0100
 Compiler: GNU Fortran 10.2.0; Optimisation: fast
 Comms   : Open MPI v4.0.5
 MATHLIBS: openblas (LAPACK version 3.9.0)
 FFT Lib : fftw3 version fftw-3.3.8-sse2-avx-avx2-avx2_128
 Fundamental constants values: CODATA 2018

 Run started: Mon, 13 May 2024 15:09:47 +0100
 +-------------------------------------------------+
 |                                                 |
 |  D D D D    F F F F F  P P P P     T T T T T    |
 |  D       D  F          P       P       T        |
 |  D       D  F F F F    P P P P         T        |
 |  D       D  F          P               T        |
 |  D D D D    F          P               T        |
 |                                                 |
 +-------------------------------------------------+
 |                                                 |
 | Welcome to Castep Linear Response (DFPT)        |
 |                                                 |
 | Copyright (c) 2006 - 2023                       |
 |                                                 |
 | Please cite the following publications in all   |
 | work arising from your use of CASTEP LR.        |
 |                                                 |
 | K. Refson, S. J. Clark and P. R. Tulip          |
 | Variational density functional perturbation     |
 | theory for dielectrics and lattice dynamics     |
 | Phys. Rev. B 73(15), 155114 (2006)              |
 +-------------------------------------------------+


 Atomic calculation performed for Ti: 1s2 2s2 2p6 3s2 3p6 3d2 4s2

 Converged in 79 iterations to an ae energy of -23226.658 eV

   ============================================================                
   | Pseudopotential Report - Date of generation 13-05-2024   |                
   ------------------------------------------------------------                
   | Element: Ti Ionic charge: 12.00 Level of theory: PBE     |                
   | Atomic Solver: Koelling-Harmon                           |                
   |                                                          |                
   |               Reference Electronic Structure             |                
   |         Orbital         Occupation         Energy        |                
   |            3s              2.000           -2.302        |                
   |            3p              6.000           -1.428        |                
   |            4s              2.000           -0.164        |                
   |            3d              2.000           -0.157        |                
   |                                                          |                
   |                 Pseudopotential Definition               |                
   |        Beta     l      e      Rc     scheme   norm       |                
   |          1      0   -2.302   1.793     qc      0         |                
   |          2      0   -0.164   1.793     qc      0         |                
   |          3      0    0.250   1.793     qc      0         |                
   |          4      1   -1.428   1.793     qc      0         |                
   |          5      1    0.250   1.793     qc      0         |                
   |          6      2   -0.157   1.793     qc      0         |                
   |          7      2    0.250   1.793     qc      0         |                
   |         loc     3    0.000   1.793     pn      0         |                
   |                                                          |                
   | Augmentation charge Rinner = 1.263                       |                
   | Partial core correction Rc = 1.263                       |                
   ------------------------------------------------------------                
   | "3|1.8|9|10|11|30U:40:31:32(qc=5.5)"                     |                
   ------------------------------------------------------------                
   |      Author: Chris J. Pickard, Cambridge University      |                
   ============================================================                

 Atomic calculation performed for V: 1s2 2s2 2p6 3s2 3p6 3d3 4s2

 Converged in 81 iterations to an ae energy of -25823.733 eV

   ============================================================                
   | Pseudopotential Report - Date of generation 13-05-2024   |                
   ------------------------------------------------------------                
   | Element: V Ionic charge: 13.00 Level of theory: PBE      |                
   | Atomic Solver: Koelling-Harmon                           |                
   |                                                          |                
   |               Reference Electronic Structure             |                
   |         Orbital         Occupation         Energy        |                
   |            3s              2.000           -2.581        |                
   |            3p              6.000           -1.618        |                
   |            3d              3.000           -0.190        |                
   |            4s              2.000           -0.173        |                
   |                                                          |                
   |                 Pseudopotential Definition               |                
   |        Beta     l      e      Rc     scheme   norm       |                
   |          1      0   -2.581   1.803     qc      0         |                
   |          2      0   -0.173   1.803     qc      0         |                
   |          3      0    0.250   1.803     qc      0         |                
   |          4      1   -1.618   1.803     qc      0         |                
   |          5      1    0.250   1.803     qc      0         |                
   |          6      2   -0.190   1.803     qc      0         |                
   |          7      2    0.250   1.803     qc      0         |                
   |         loc     3    0.000   1.803     pn      0         |                
   |                                                          |                
   | Augmentation charge Rinner = 0.600                       |                
   | Partial core correction Rc = 0.600                       |                
   ------------------------------------------------------------                
   | "3|1.8|1.8|0.6|12|14|16|30U:40:31:32(qc=7)"              |                
   ------------------------------------------------------------                
   |      Author: Chris J. Pickard, Cambridge University      |                
   ============================================================                

 Pseudo atomic calculation performed for Ti 3s2 3p6 3d2 4s2

 Converged in 51 iterations to a total energy of -1587.0236 eV

 Pseudo atomic calculation performed for V 3s2 3p6 3d3 4s2

 Converged in 52 iterations to a total energy of -2065.7874 eV
 Calculation parallelised over 192 processes.
 Data is distributed by G-vector(6-way) and k-point(32-way)

 ************************************ Title ************************************
 

 ***************************** General Parameters ******************************
  
 output verbosity                               : normal  (1)
 write checkpoint data to                       : ti64_hex_phonon_VV.check
 type of calculation                            : phonon calculation
 stress calculation                             : on
 density difference calculation                 : off
 electron localisation func (ELF) calculation   : off
 Hirshfeld analysis                             : off
 polarisation (Berry phase) analysis            : off
 molecular orbital projected DOS                : off
 deltaSCF calculation                           : off
 unlimited duration calculation
 timing information                             : on
 memory usage estimate                          : on
 write extra output files                       : on
 write final potential to formatted file        : off
 write final density to formatted file          : off
 write structure in CELL formatted file         : on
 write BibTeX reference list                    : on
 write OTFG pseudopotential files               : on
 write electrostatic potential file             : on
 write bands file                               : on
 checkpoint writing                             : both castep_bin and check files
  
 output         length unit                     : A
 output           mass unit                     : amu
 output           time unit                     : ps
 output         charge unit                     : e
 output           spin unit                     : hbar/2
 output         energy unit                     : eV
 output          force unit                     : eV/A
 output       velocity unit                     : A/ps
 output       pressure unit                     : GPa
 output     inv_length unit                     : 1/A
 output      frequency unit                     : THz
 output force constant unit                     : eV/A**2
 output         volume unit                     : A**3
 output   IR intensity unit                     : (D/A)**2/amu
 output         dipole unit                     : D
 output         efield unit                     : eV/A/e
 output        entropy unit                     : J/mol/K
 output    efield chi2 unit                     : pm/V
  
 wavefunctions paging                           : none
 random number generator seed                   :  150947359
 data distribution                              : k-point only
 optimization strategy                          : maximize speed(+++)

 *********************** Exchange-Correlation Parameters ***********************
  
 using functional                               : Perdew Burke Ernzerhof
 relativistic treatment                         : Koelling-Harmon
 DFT+D: Semi-empirical dispersion correction    : off

 ************************* Pseudopotential Parameters **************************
  
 pseudopotential representation                 : reciprocal space
 <beta|phi> representation                      : reciprocal space
 spin-orbit coupling                            : off

 **************************** Basis Set Parameters *****************************
  
 plane wave basis set cut-off                   :   800.0000   eV
 size of standard grid                          :     2.0000
 size of   fine   grid                          :     4.0000
 size of   fine   gmax                          :    57.9620   1/A
 largest prime factor in FFT                    :          5
 finite basis set correction                    : automatic
 number of sample energies                      :          3
           sample  spacing                      :     5.0000   eV

 **************************** Electronic Parameters ****************************
  
 number of  electrons                           :  146.0    
 net charge of system                           :  0.000    
 treating system as non-spin-polarized
 number of bands                                :        108

 ********************* Electronic Minimization Parameters **********************
  
 Method: Treating system as metallic with density mixing treatment of electrons,
         and number of  SD  steps               :          1
         and number of  CG  steps               :          4
  
 total energy / atom convergence tol.           : 0.1000E-08   eV
 eigen-energy convergence tolerance             : 0.1111E-09   eV
 max force / atom convergence tol.              : ignored
 convergence tolerance window                   :          3   cycles
 max. number of SCF cycles                      :         30
 number of fixed-spin iterations                :         10
 smearing scheme                                : Gaussian
 smearing width                                 : 0.5000E-01   eV
 Fermi energy convergence tolerance             : 0.2721E-13   eV
 periodic dipole correction                     : NONE

 ************************** Density Mixing Parameters **************************
  
 density-mixing scheme                          : Pulay
 max. length of mixing history                  :         20
 charge density mixing amplitude                : 0.8000    
 cut-off energy for mixing                      :  800.0       eV
 charge density mixing g-vector                 :  1.500       1/A

 *********************** Population Analysis Parameters ************************
  
 Population analysis with cutoff                :  3.000       A
 Population analysis output                     : summary and pdos components

 ****************************** Phonon Parameters ******************************
  
 phonon calculation method                      : finite displacement
 finite displacement amplitude                  : 0.1000E-01   A
 fine phonon calculation method                 : interpolation
 non-periodic force constant method             : Weighted cumulant sum
 force constant cutoff scale factor             :     1.0000
 LO/TO splitting term                           : included
 acoustic phonon sum rule                       : correct D(q) in recip-space
 Born effective charges                         : calculated
 Born charge sum rule                           : explicitly enforced
 Raman intensities                              : not calculated
 phonon extra output                            : real-space force constants
 phonon k-points                                : use reduced set
 phonon DOS                                     : not calculated
 backups results every                          :       3600   seconds
 band convergence tolerance                     : 0.1000E-08   eV

 ******************************* Developer Code ********************************
  
 PARALLEL: kpoints=32 : ENDPARALLEL
 PHONON: DENSITY_SCHEME=NONE FD_WVFN_SCHEME=NONE COMMS_REASSIGN=F : ENDPHONON
 no_improve_wvfn

 *******************************************************************************
  

                           -------------------------------
                                      Unit Cell
                           -------------------------------
        Real Lattice(A)                      Reciprocal Lattice(1/A)
     7.8732420     0.0000000     0.0000000        0.798042955  -0.000000000  -0.000000000
     0.0000000     4.5456190     0.0000000        0.000000000   1.382250758  -0.000000000
     0.0000000     0.0000000     5.5284440        0.000000000   0.000000000   1.136519662

                       Lattice parameters(A)       Cell Angles
                    a =      7.873242          alpha =   90.000000
                    b =      4.545619          beta  =   90.000000
                    c =      5.528444          gamma =   90.000000

                       Current cell volume =           197.856147       A**3
                                   density =             2.934218   AMU/A**3
                                           =             4.872383     g/cm^3

                           -------------------------------
                                     Cell Contents
                           -------------------------------
                         Total number of ions in cell =   12
                      Total number of species in cell =    2
                        Max number of any one species =   10

            xxxxxxxxxxxxxxxxxxxxxxxxxxxxxxxxxxxxxxxxxxxxxxxxxxxxxxxxxxxx
            x  Element    Atom        Fractional coordinates of atoms  x
            x            Number           u          v          w      x
            x----------------------------------------------------------x
            x  Ti           1         0.325884   0.000000   0.246045   x 
            x  Ti           2         0.496417   0.500000   0.001159   x 
            x  Ti           3         0.670747   0.000000   0.247008   x 
            x  Ti           4         0.843088   0.500000   0.244815   x 
            x  Ti           5         0.001735   0.000000   0.500203   x 
            x  Ti           6         0.162986   0.500000   0.755881   x 
            x  Ti           7         0.331633   0.000000   0.753452   x 
            x  Ti           8         0.497526   0.500000   0.499866   x 
            x  Ti           9         0.670239   0.000000   0.753294   x 
            x  Ti          10         0.834599   0.500000   0.755008   x 
            x  V            1        -0.000005   0.000000  -0.000723   x 
            x  V            2         0.165150   0.500000   0.243992   x 
            xxxxxxxxxxxxxxxxxxxxxxxxxxxxxxxxxxxxxxxxxxxxxxxxxxxxxxxxxxxx


                         No user defined ionic velocities

                           -------------------------------
                                   Details of Species
                           -------------------------------

                               Mass of species in AMU
                                    Ti   47.8670000
                                    V   50.9415000

                          Electric Quadrupole Moment (Barn)
                                    Ti    0.3020000 Isotope 47
                                    V   -0.0520000 Isotope 51

                          Files used for pseudopotentials:
                                    Ti 3|1.8|9|10|11|30U:40:31:32(qc=5.5)
                                    V 3|1.8|1.8|0.6|12|14|16|30U:40:31:32(qc=7)

                           -------------------------------
                              k-Points For BZ Sampling
                           -------------------------------
                       MP grid size for SCF calculation is  7 11 10
                            with an offset of   0.000  0.000  0.000
                       Number of kpoints used =           210

                           -------------------------------
                               Symmetry and Constraints
                           -------------------------------

                      Maximum deviation from symmetry = 0.940008E-15     ANG

                      Number of symmetry operations   =           2
                      Number of ionic constraints     =           3
                      Point group of crystal =     3: Cs, m, m
                      Space group of crystal =     6: Pm, P -2y

             Set iprint > 1 for details on symmetry rotations/translations

                         Centre of mass is constrained
             Set iprint > 1 for details of linear ionic constraints

                         Number of cell constraints= 2
                         Cell constraints are:  1 2 3 0 5 0

                         External pressure/stress (GPa)
                          0.00000   0.00000   0.00000
                                    0.00000   0.00000
                                              0.00000
 
+---------------- MEMORY AND SCRATCH DISK ESTIMATES PER PROCESS --------------+
|                                                     Memory          Disk    |
| Baseline code, static data and system overhead      591.0 MB         0.0 MB |
| BLAS internal memory storage                          0.0 MB         0.0 MB |
| Model and support data                              966.0 MB         0.0 MB |
| Electronic energy minimisation requirements          83.5 MB         0.0 MB |
| Force calculation requirements                       37.2 MB         0.0 MB |
| Stress calculation requirements                      41.0 MB         0.0 MB |
|                                               ----------------------------- |
| Approx. total storage required per process         1640.5 MB         0.0 MB |
|                                                                             |
| Requirements will fluctuate during execution and may exceed these estimates |
+-----------------------------------------------------------------------------+
Calculating finite basis set correction with  3 cut-off energies.
Calculating total energy with cut-off of  790.000 eV.
------------------------------------------------------------------------ <-- SCF
SCF loop      Energy           Fermi           Energy gain       Timer   <-- SCF
                               energy          per atom          (sec)   <-- SCF
------------------------------------------------------------------------ <-- SCF
Initial  -1.83269838E+004  0.00000000E+000                        19.20  <-- SCF
      1  -1.95536690E+004  1.17891994E+001   1.02223767E+002      29.64  <-- SCF
      2  -2.00502652E+004  1.01412756E+001   4.13830220E+001      37.03  <-- SCF
      3  -2.00877356E+004  9.72570099E+000   3.12253313E+000      47.11  <-- SCF
      4  -2.00888635E+004  9.68550716E+000   9.39855063E-002      55.83  <-- SCF
      5  -2.00918040E+004  8.64482260E+000   2.45044841E-001      68.27  <-- SCF
      6  -2.00904795E+004  8.94823158E+000  -1.10372642E-001      81.47  <-- SCF
      7  -2.00873116E+004  9.12665489E+000  -2.63995722E-001      94.06  <-- SCF
      8  -2.00864070E+004  9.17249167E+000  -7.53817561E-002     107.42  <-- SCF
      9  -2.00864367E+004  9.20160695E+000   2.47324596E-003     120.62  <-- SCF
     10  -2.00863491E+004  9.11778622E+000  -7.30079485E-003     133.08  <-- SCF
     11  -2.00863304E+004  9.11932272E+000  -1.55700459E-003     146.63  <-- SCF
     12  -2.00863277E+004  9.11708033E+000  -2.26413234E-004     159.43  <-- SCF
     13  -2.00863274E+004  9.11622378E+000  -2.57156814E-005     172.86  <-- SCF
     14  -2.00863271E+004  9.11719897E+000  -2.13210619E-005     186.21  <-- SCF
     15  -2.00863271E+004  9.11730591E+000  -3.00513419E-006     199.63  <-- SCF
     16  -2.00863271E+004  9.11733024E+000  -3.04101916E-007     212.81  <-- SCF
     17  -2.00863271E+004  9.11731278E+000  -2.51990879E-007     225.92  <-- SCF
     18  -2.00863271E+004  9.11731377E+000   2.16130141E-008     239.33  <-- SCF
     19  -2.00863271E+004  9.11731420E+000  -3.53856164E-008     251.93  <-- SCF
     20  -2.00863271E+004  9.11730870E+000   1.22273609E-009     262.33  <-- SCF
     21  -2.00863271E+004  9.11730626E+000  -1.33900301E-009     271.07  <-- SCF
     22  -2.00863271E+004  9.11730633E+000   8.81669288E-011     279.49  <-- SCF
     23  -2.00863271E+004  9.11730566E+000  -2.03660450E-011     287.89  <-- SCF
------------------------------------------------------------------------ <-- SCF
 
Final energy, E             =  -20086.30677461     eV
Final free energy (E-TS)    =  -20086.32705271     eV
(energies not corrected for finite basis set)
 
NB est. 0K energy (E-0.5TS)      =  -20086.31691366     eV
 
Calculating total energy with cut-off of  795.000 eV.
------------------------------------------------------------------------ <-- SCF
SCF loop      Energy           Fermi           Energy gain       Timer   <-- SCF
                               energy          per atom          (sec)   <-- SCF
------------------------------------------------------------------------ <-- SCF
Initial  -2.00863068E+004  0.00000000E+000                       295.42  <-- SCF
      1  -2.00863273E+004  9.11729862E+000   1.70729269E-003     303.38  <-- SCF
      2  -2.00863273E+004  9.11729862E+000   3.12399662E-009     313.40  <-- SCF
      3  -2.00863273E+004  9.11732095E+000   1.29412037E-008     324.97  <-- SCF
      4  -2.00863273E+004  9.11709149E+000   1.27331942E-006     337.72  <-- SCF
      5  -2.00863273E+004  9.11737062E+000  -1.21444892E-006     350.27  <-- SCF
      6  -2.00863273E+004  9.11722534E+000   9.61566056E-008     363.58  <-- SCF
      7  -2.00863273E+004  9.11743705E+000   4.61852918E-008     376.15  <-- SCF
      8  -2.00863273E+004  9.11730709E+000  -2.13367061E-007     388.56  <-- SCF
      9  -2.00863273E+004  9.11730214E+000   7.48052565E-009     400.97  <-- SCF
     10  -2.00863273E+004  9.11729748E+000  -3.31322038E-009     411.99  <-- SCF
     11  -2.00863273E+004  9.11729785E+000  -1.43902864E-009     420.89  <-- SCF
     12  -2.00863273E+004  9.11730297E+000   5.72311643E-011     429.15  <-- SCF
     13  -2.00863273E+004  9.11730394E+000  -4.74348389E-011     437.35  <-- SCF
------------------------------------------------------------------------ <-- SCF
 
Final energy, E             =  -20086.30698418     eV
Final free energy (E-TS)    =  -20086.32726220     eV
(energies not corrected for finite basis set)
 
NB est. 0K energy (E-0.5TS)      =  -20086.31712319     eV
 
Calculating total energy with cut-off of  800.000 eV.
------------------------------------------------------------------------ <-- SCF
SCF loop      Energy           Fermi           Energy gain       Timer   <-- SCF
                               energy          per atom          (sec)   <-- SCF
------------------------------------------------------------------------ <-- SCF
Initial  -2.00863070E+004  0.00000000E+000                       444.83  <-- SCF
      1  -2.00863275E+004  9.11730625E+000   1.70683842E-003     452.66  <-- SCF
      2  -2.00863275E+004  9.11730625E+000   2.96338844E-009     462.41  <-- SCF
      3  -2.00863275E+004  9.11720710E+000   8.47119195E-008     474.40  <-- SCF
      4  -2.00863276E+004  9.11862028E+000   1.37298551E-005     486.98  <-- SCF
      5  -2.00863275E+004  9.11726993E+000  -1.39655791E-005     499.23  <-- SCF
      6  -2.00863275E+004  9.11727966E+000   2.14620475E-007     512.71  <-- SCF
      7  -2.00863275E+004  9.11734648E+000   2.70550791E-007     526.13  <-- SCF
      8  -2.00863275E+004  9.11730046E+000  -3.30489608E-007     539.06  <-- SCF
      9  -2.00863275E+004  9.11729693E+000   2.68625555E-010     551.20  <-- SCF
     10  -2.00863275E+004  9.11729783E+000   2.72208948E-009     562.37  <-- SCF
     11  -2.00863275E+004  9.11729566E+000  -4.17117225E-009     572.89  <-- SCF
     12  -2.00863275E+004  9.11730078E+000   1.21165078E-010     581.09  <-- SCF
     13  -2.00863275E+004  9.11730132E+000  -2.09847602E-010     589.23  <-- SCF
------------------------------------------------------------------------ <-- SCF
 
Final energy, E             =  -20086.30718823     eV
Final free energy (E-TS)    =  -20086.32746631     eV
(energies not corrected for finite basis set)
 
NB est. 0K energy (E-0.5TS)      =  -20086.31732727     eV
 
 For future reference: finite basis dEtot/dlog(Ecut) =      -0.032877eV
 Total energy corrected for finite basis set =  -20086.327466 eV

 Finite displacement calculation will use NONE scheme to initialised displaced electron density.
 ??????????????????????????????????????????????????????????????????????????????? 
     WARNING: Calculation of Born effective charges and IR intensities is not    
              implemented for ultrasoft pseudopotentials.                        
              Parameter CALCULATE_BORN_CHARGES changed to .FALSE.                
 ??????????????????????????????????????????????????????????????????????????????? 
 ??????????????????????????????????????????????????????????????????????????????? 
     WARNING: Calculation of LO/TO splitting is not implemented for ultrasoft    
              pseudopotentials.                                                  
              Parameter PHONON_CALC_LO_TO_SPLITTING changed to .FALSE.           
 ??????????????????????????????????????????????????????????????????????????????? 

 Phonon supercell    1 (of 7)      [  0 -1  0; -1  0  0;  0  0 -2]:     599.57s
 -------------------------------------------------------------------------------
 Perturbation    1 (of   36): Ti    1 X at q=( 0.000, 0.000, 0.000):    603.55s
  Parallel strategy changed for perturbation using 108 k-points
  Data is distributed by G-vector(6-way) and k-point(32-way) and band(1-way)
  +---------------- MEMORY AND SCRATCH DISK ESTIMATES PER PROCESS --------------+
  |                                                     Memory          Disk    |
  | Baseline code, static data and system overhead      591.0 MB         0.0 MB |
  | BLAS internal memory storage                          0.0 MB         0.0 MB |
  | Model and support data                              966.0 MB         0.0 MB |
  | Finite displacement phonon requirements             236.5 MB         0.0 MB |
  |                                               ----------------------------- |
  | Approx. total storage required per process         1793.5 MB         0.0 MB |
  |                                                                             |
  | Requirements will fluctuate during execution and may exceed these estimates |
  +-----------------------------------------------------------------------------+
 Perturbation    2 (of   36): Ti    1 Y at q=( 0.000, 0.000, 0.000):   2318.01s
  Parallel strategy changed for perturbation using 193 k-points
  Data is distributed by G-vector(6-way) and k-point(32-way) and band(1-way)
  +---------------- MEMORY AND SCRATCH DISK ESTIMATES PER PROCESS --------------+
  |                                                     Memory          Disk    |
  | Baseline code, static data and system overhead      591.0 MB         0.0 MB |
  | BLAS internal memory storage                          0.0 MB         0.0 MB |
  | Model and support data                              966.0 MB         0.0 MB |
  | Finite displacement phonon requirements             310.7 MB         0.0 MB |
  |                                               ----------------------------- |
  | Approx. total storage required per process         1867.7 MB         0.0 MB |
  |                                                                             |
  | Requirements will fluctuate during execution and may exceed these estimates |
  +-----------------------------------------------------------------------------+

Writing analysis data to ti64_hex_phonon_VV.castep_bin

Writing model to ti64_hex_phonon_VV.check
 Perturbation    3 (of   36): Ti    1 Z at q=( 0.000, 0.000, 0.000):   4701.94s
  Parallel strategy changed for perturbation using 108 k-points
  Data is distributed by G-vector(6-way) and k-point(32-way) and band(1-way)
 Perturbation    4 (of   36): Ti    2 X at q=( 0.000, 0.000, 0.000):   6424.19s
 Perturbation    5 (of   36): Ti    2 Y at q=( 0.000, 0.000, 0.000):   8091.02s
  Parallel strategy changed for perturbation using 193 k-points
  Data is distributed by G-vector(6-way) and k-point(32-way) and band(1-way)

Writing analysis data to ti64_hex_phonon_VV.castep_bin

Writing model to ti64_hex_phonon_VV.check
 Perturbation    6 (of   36): Ti    2 Z at q=( 0.000, 0.000, 0.000):  10501.84s
  Parallel strategy changed for perturbation using 108 k-points
  Data is distributed by G-vector(6-way) and k-point(32-way) and band(1-way)
 Perturbation    7 (of   36): Ti    3 X at q=( 0.000, 0.000, 0.000):  12256.04s
 Perturbation    8 (of   36): Ti    3 Y at q=( 0.000, 0.000, 0.000):  13876.80s
  Parallel strategy changed for perturbation using 193 k-points
  Data is distributed by G-vector(6-way) and k-point(32-way) and band(1-way)

Writing analysis data to ti64_hex_phonon_VV.castep_bin

Writing model to ti64_hex_phonon_VV.check
 Perturbation    9 (of   36): Ti    3 Z at q=( 0.000, 0.000, 0.000):  16175.37s
  Parallel strategy changed for perturbation using 108 k-points
  Data is distributed by G-vector(6-way) and k-point(32-way) and band(1-way)
 Perturbation   10 (of   36): Ti    4 X at q=( 0.000, 0.000, 0.000):  17900.94s
 Perturbation   11 (of   36): Ti    4 Y at q=( 0.000, 0.000, 0.000):  19547.90s
  Parallel strategy changed for perturbation using 193 k-points
  Data is distributed by G-vector(6-way) and k-point(32-way) and band(1-way)

Writing analysis data to ti64_hex_phonon_VV.castep_bin

Writing model to ti64_hex_phonon_VV.check
 Perturbation   12 (of   36): Ti    4 Z at q=( 0.000, 0.000, 0.000):  21956.37s
  Parallel strategy changed for perturbation using 108 k-points
  Data is distributed by G-vector(6-way) and k-point(32-way) and band(1-way)
 Perturbation   13 (of   36): Ti    5 X at q=( 0.000, 0.000, 0.000):  23672.98s
 Perturbation   14 (of   36): Ti    5 Y at q=( 0.000, 0.000, 0.000):  25304.01s
  Parallel strategy changed for perturbation using 193 k-points
  Data is distributed by G-vector(6-way) and k-point(32-way) and band(1-way)

Writing analysis data to ti64_hex_phonon_VV.castep_bin

Writing model to ti64_hex_phonon_VV.check
 Perturbation   15 (of   36): Ti    5 Z at q=( 0.000, 0.000, 0.000):  27709.12s
  Parallel strategy changed for perturbation using 108 k-points
  Data is distributed by G-vector(6-way) and k-point(32-way) and band(1-way)
 Perturbation   16 (of   36): Ti    6 X at q=( 0.000, 0.000, 0.000):  29453.43s
 Perturbation   17 (of   36): Ti    6 Y at q=( 0.000, 0.000, 0.000):  31091.30s
  Parallel strategy changed for perturbation using 193 k-points
  Data is distributed by G-vector(6-way) and k-point(32-way) and band(1-way)

Writing analysis data to ti64_hex_phonon_VV.castep_bin

Writing model to ti64_hex_phonon_VV.check
 Perturbation   18 (of   36): Ti    6 Z at q=( 0.000, 0.000, 0.000):  33503.25s
  Parallel strategy changed for perturbation using 108 k-points
  Data is distributed by G-vector(6-way) and k-point(32-way) and band(1-way)
 Perturbation   19 (of   36): Ti    7 X at q=( 0.000, 0.000, 0.000):  35229.56s
 Perturbation   20 (of   36): Ti    7 Y at q=( 0.000, 0.000, 0.000):  36875.91s
  Parallel strategy changed for perturbation using 193 k-points
  Data is distributed by G-vector(6-way) and k-point(32-way) and band(1-way)

Writing analysis data to ti64_hex_phonon_VV.castep_bin

Writing model to ti64_hex_phonon_VV.check
 Perturbation   21 (of   36): Ti    7 Z at q=( 0.000, 0.000, 0.000):  39254.39s
  Parallel strategy changed for perturbation using 108 k-points
  Data is distributed by G-vector(6-way) and k-point(32-way) and band(1-way)
 Perturbation   22 (of   36): Ti    8 X at q=( 0.000, 0.000, 0.000):  40981.88s
 Perturbation   23 (of   36): Ti    8 Y at q=( 0.000, 0.000, 0.000):  42652.01s
  Parallel strategy changed for perturbation using 193 k-points
  Data is distributed by G-vector(6-way) and k-point(32-way) and band(1-way)

Writing analysis data to ti64_hex_phonon_VV.castep_bin

Writing model to ti64_hex_phonon_VV.check
 Perturbation   24 (of   36): Ti    8 Z at q=( 0.000, 0.000, 0.000):  44957.45s
  Parallel strategy changed for perturbation using 108 k-points
  Data is distributed by G-vector(6-way) and k-point(32-way) and band(1-way)
 Perturbation   25 (of   36): Ti    9 X at q=( 0.000, 0.000, 0.000):  46675.09s
 Perturbation   26 (of   36): Ti    9 Y at q=( 0.000, 0.000, 0.000):  48300.66s
  Parallel strategy changed for perturbation using 193 k-points
  Data is distributed by G-vector(6-way) and k-point(32-way) and band(1-way)

Writing analysis data to ti64_hex_phonon_VV.castep_bin

Writing model to ti64_hex_phonon_VV.check
 Perturbation   27 (of   36): Ti    9 Z at q=( 0.000, 0.000, 0.000):  50634.97s
  Parallel strategy changed for perturbation using 108 k-points
  Data is distributed by G-vector(6-way) and k-point(32-way) and band(1-way)
 Perturbation   28 (of   36): Ti   10 X at q=( 0.000, 0.000, 0.000):  52366.23s
 Perturbation   29 (of   36): Ti   10 Y at q=( 0.000, 0.000, 0.000):  54017.87s
  Parallel strategy changed for perturbation using 193 k-points
  Data is distributed by G-vector(6-way) and k-point(32-way) and band(1-way)

Writing analysis data to ti64_hex_phonon_VV.castep_bin

Writing model to ti64_hex_phonon_VV.check
 Perturbation   30 (of   36): Ti   10 Z at q=( 0.000, 0.000, 0.000):  56406.65s
  Parallel strategy changed for perturbation using 108 k-points
  Data is distributed by G-vector(6-way) and k-point(32-way) and band(1-way)
 Perturbation   31 (of   36): V     1 X at q=( 0.000, 0.000, 0.000):  58129.99s
 Perturbation   32 (of   36): V     1 Y at q=( 0.000, 0.000, 0.000):  59800.22s
  Parallel strategy changed for perturbation using 193 k-points
  Data is distributed by G-vector(6-way) and k-point(32-way) and band(1-way)

Writing analysis data to ti64_hex_phonon_VV.castep_bin

Writing model to ti64_hex_phonon_VV.check
 Perturbation   33 (of   36): V     1 Z at q=( 0.000, 0.000, 0.000):  62186.06s
  Parallel strategy changed for perturbation using 108 k-points
  Data is distributed by G-vector(6-way) and k-point(32-way) and band(1-way)
 Perturbation   34 (of   36): V     2 X at q=( 0.000, 0.000, 0.000):  63931.52s
 Perturbation   35 (of   36): V     2 Y at q=( 0.000, 0.000, 0.000):  65616.03s
  Parallel strategy changed for perturbation using 193 k-points
  Data is distributed by G-vector(6-way) and k-point(32-way) and band(1-way)

Writing analysis data to ti64_hex_phonon_VV.castep_bin

Writing model to ti64_hex_phonon_VV.check
 Perturbation   36 (of   36): V     2 Z at q=( 0.000, 0.000, 0.000):  68007.02s
  Parallel strategy changed for perturbation using 108 k-points
  Data is distributed by G-vector(6-way) and k-point(32-way) and band(1-way)

 Phonon supercell    2 (of 7)      [  0  0  1;  1  0  0;  0  2  0]:   69728.78s
 -------------------------------------------------------------------------------
 Perturbation    1 (of   36): Ti    1 X at q=( 0.000, 0.000, 0.000):  69732.38s
  Parallel strategy changed for perturbation using 105 k-points
  Data is distributed by G-vector(6-way) and k-point(32-way) and band(1-way)
 Perturbation    2 (of   36): Ti    1 Y at q=( 0.000, 0.000, 0.000):  71274.25s
  Parallel strategy changed for perturbation using 210 k-points
  Data is distributed by G-vector(6-way) and k-point(32-way) and band(1-way)

Writing analysis data to ti64_hex_phonon_VV.castep_bin

Writing model to ti64_hex_phonon_VV.check
 Perturbation    3 (of   36): Ti    1 Z at q=( 0.000, 0.000, 0.000):  73915.14s
  Parallel strategy changed for perturbation using 105 k-points
  Data is distributed by G-vector(6-way) and k-point(32-way) and band(1-way)
 Perturbation    4 (of   36): Ti    2 X at q=( 0.000, 0.000, 0.000):  75417.38s
 Perturbation    5 (of   36): Ti    2 Y at q=( 0.000, 0.000, 0.000):  76891.70s
  Parallel strategy changed for perturbation using 210 k-points
  Data is distributed by G-vector(6-way) and k-point(32-way) and band(1-way)

Writing analysis data to ti64_hex_phonon_VV.castep_bin

Writing model to ti64_hex_phonon_VV.check
 Perturbation    6 (of   36): Ti    2 Z at q=( 0.000, 0.000, 0.000):  79515.86s
  Parallel strategy changed for perturbation using 105 k-points
  Data is distributed by G-vector(6-way) and k-point(32-way) and band(1-way)
 Perturbation    7 (of   36): Ti    3 X at q=( 0.000, 0.000, 0.000):  81009.34s
 Perturbation    8 (of   36): Ti    3 Y at q=( 0.000, 0.000, 0.000):  82483.91s
  Parallel strategy changed for perturbation using 210 k-points
  Data is distributed by G-vector(6-way) and k-point(32-way) and band(1-way)

Writing analysis data to ti64_hex_phonon_VV.castep_bin

Writing model to ti64_hex_phonon_VV.check
 Perturbation    9 (of   36): Ti    3 Z at q=( 0.000, 0.000, 0.000):  85081.33s
  Parallel strategy changed for perturbation using 105 k-points
  Data is distributed by G-vector(6-way) and k-point(32-way) and band(1-way)
 Perturbation   10 (of   36): Ti    4 X at q=( 0.000, 0.000, 0.000):  86577.85s
 Perturbation   11 (of   36): Ti    4 Y at q=( 0.000, 0.000, 0.000):  88071.26s
  Parallel strategy changed for perturbation using 210 k-points
  Data is distributed by G-vector(6-way) and k-point(32-way) and band(1-way)

Writing analysis data to ti64_hex_phonon_VV.castep_bin

Writing model to ti64_hex_phonon_VV.check
 Perturbation   12 (of   36): Ti    4 Z at q=( 0.000, 0.000, 0.000):  90732.96s
  Parallel strategy changed for perturbation using 105 k-points
  Data is distributed by G-vector(6-way) and k-point(32-way) and band(1-way)
 Perturbation   13 (of   36): Ti    5 X at q=( 0.000, 0.000, 0.000):  92231.37s
 Perturbation   14 (of   36): Ti    5 Y at q=( 0.000, 0.000, 0.000):  93694.66s
  Parallel strategy changed for perturbation using 210 k-points
  Data is distributed by G-vector(6-way) and k-point(32-way) and band(1-way)

Writing analysis data to ti64_hex_phonon_VV.castep_bin

Writing model to ti64_hex_phonon_VV.check
 Perturbation   15 (of   36): Ti    5 Z at q=( 0.000, 0.000, 0.000):  96325.27s
  Parallel strategy changed for perturbation using 105 k-points
  Data is distributed by G-vector(6-way) and k-point(32-way) and band(1-way)
 Perturbation   16 (of   36): Ti    6 X at q=( 0.000, 0.000, 0.000):  97815.94s
 Perturbation   17 (of   36): Ti    6 Y at q=( 0.000, 0.000, 0.000):  99286.10s
  Parallel strategy changed for perturbation using 210 k-points
  Data is distributed by G-vector(6-way) and k-point(32-way) and band(1-way)

Writing analysis data to ti64_hex_phonon_VV.castep_bin

Writing model to ti64_hex_phonon_VV.check
 Perturbation   18 (of   36): Ti    6 Z at q=( 0.000, 0.000, 0.000): 101943.78s
  Parallel strategy changed for perturbation using 105 k-points
  Data is distributed by G-vector(6-way) and k-point(32-way) and band(1-way)
 Perturbation   19 (of   36): Ti    7 X at q=( 0.000, 0.000, 0.000): 103408.99s
 Perturbation   20 (of   36): Ti    7 Y at q=( 0.000, 0.000, 0.000): 104882.94s
  Parallel strategy changed for perturbation using 210 k-points
  Data is distributed by G-vector(6-way) and k-point(32-way) and band(1-way)

Writing analysis data to ti64_hex_phonon_VV.castep_bin

Writing model to ti64_hex_phonon_VV.check
 Perturbation   21 (of   36): Ti    7 Z at q=( 0.000, 0.000, 0.000): 107437.85s
  Parallel strategy changed for perturbation using 105 k-points
  Data is distributed by G-vector(6-way) and k-point(32-way) and band(1-way)
 Perturbation   22 (of   36): Ti    8 X at q=( 0.000, 0.000, 0.000): 108906.12s
 Perturbation   23 (of   36): Ti    8 Y at q=( 0.000, 0.000, 0.000): 110376.09s
  Parallel strategy changed for perturbation using 210 k-points
  Data is distributed by G-vector(6-way) and k-point(32-way) and band(1-way)

Writing analysis data to ti64_hex_phonon_VV.castep_bin

Writing model to ti64_hex_phonon_VV.check
 Perturbation   24 (of   36): Ti    8 Z at q=( 0.000, 0.000, 0.000): 112993.62s
  Parallel strategy changed for perturbation using 105 k-points
  Data is distributed by G-vector(6-way) and k-point(32-way) and band(1-way)
 Perturbation   25 (of   36): Ti    9 X at q=( 0.000, 0.000, 0.000): 114481.29s
 Perturbation   26 (of   36): Ti    9 Y at q=( 0.000, 0.000, 0.000): 115956.02s
  Parallel strategy changed for perturbation using 210 k-points
  Data is distributed by G-vector(6-way) and k-point(32-way) and band(1-way)

Writing analysis data to ti64_hex_phonon_VV.castep_bin

Writing model to ti64_hex_phonon_VV.check
 Perturbation   27 (of   36): Ti    9 Z at q=( 0.000, 0.000, 0.000): 118555.57s
  Parallel strategy changed for perturbation using 105 k-points
  Data is distributed by G-vector(6-way) and k-point(32-way) and band(1-way)
 Perturbation   28 (of   36): Ti   10 X at q=( 0.000, 0.000, 0.000): 120046.24s
 Perturbation   29 (of   36): Ti   10 Y at q=( 0.000, 0.000, 0.000): 121491.14s
  Parallel strategy changed for perturbation using 210 k-points
  Data is distributed by G-vector(6-way) and k-point(32-way) and band(1-way)

Writing analysis data to ti64_hex_phonon_VV.castep_bin

Writing model to ti64_hex_phonon_VV.check
 Perturbation   30 (of   36): Ti   10 Z at q=( 0.000, 0.000, 0.000): 124149.25s
  Parallel strategy changed for perturbation using 105 k-points
  Data is distributed by G-vector(6-way) and k-point(32-way) and band(1-way)
 Perturbation   31 (of   36): V     1 X at q=( 0.000, 0.000, 0.000): 125613.53s
 Perturbation   32 (of   36): V     1 Y at q=( 0.000, 0.000, 0.000): 127087.09s
  Parallel strategy changed for perturbation using 210 k-points
  Data is distributed by G-vector(6-way) and k-point(32-way) and band(1-way)

Writing analysis data to ti64_hex_phonon_VV.castep_bin

Writing model to ti64_hex_phonon_VV.check
 Perturbation   33 (of   36): V     1 Z at q=( 0.000, 0.000, 0.000): 129731.68s
  Parallel strategy changed for perturbation using 105 k-points
  Data is distributed by G-vector(6-way) and k-point(32-way) and band(1-way)
 Perturbation   34 (of   36): V     2 X at q=( 0.000, 0.000, 0.000): 131223.44s
 Perturbation   35 (of   36): V     2 Y at q=( 0.000, 0.000, 0.000): 132698.54s
  Parallel strategy changed for perturbation using 210 k-points
  Data is distributed by G-vector(6-way) and k-point(32-way) and band(1-way)

Writing analysis data to ti64_hex_phonon_VV.castep_bin

Writing model to ti64_hex_phonon_VV.check
 Perturbation   36 (of   36): V     2 Z at q=( 0.000, 0.000, 0.000): 135346.87s
  Parallel strategy changed for perturbation using 105 k-points
  Data is distributed by G-vector(6-way) and k-point(32-way) and band(1-way)

 Phonon supercell    3 (of 7)      [  0  1  1;  0 -1  1;  1  0  0]:  136895.47s
 -------------------------------------------------------------------------------
 Perturbation    1 (of   36): Ti    1 X at q=( 0.000, 0.000, 0.000): 136899.37s
  Parallel strategy changed for perturbation using 128 k-points
  Data is distributed by G-vector(6-way) and k-point(32-way) and band(1-way)
 Perturbation    2 (of   36): Ti    1 Y at q=( 0.000, 0.000, 0.000): 138524.37s
  Parallel strategy changed for perturbation using 224 k-points
  Data is distributed by G-vector(6-way) and k-point(32-way) and band(1-way)

Writing analysis data to ti64_hex_phonon_VV.castep_bin

Writing model to ti64_hex_phonon_VV.check
 Perturbation    3 (of   36): Ti    1 Z at q=( 0.000, 0.000, 0.000): 141170.22s
  Parallel strategy changed for perturbation using 128 k-points
  Data is distributed by G-vector(6-way) and k-point(32-way) and band(1-way)
 Perturbation    4 (of   36): Ti    2 X at q=( 0.000, 0.000, 0.000): 142790.83s
 Perturbation    5 (of   36): Ti    2 Y at q=( 0.000, 0.000, 0.000): 144343.55s
  Parallel strategy changed for perturbation using 224 k-points
  Data is distributed by G-vector(6-way) and k-point(32-way) and band(1-way)

Writing analysis data to ti64_hex_phonon_VV.castep_bin

Writing model to ti64_hex_phonon_VV.check
 Perturbation    6 (of   36): Ti    2 Z at q=( 0.000, 0.000, 0.000): 146968.97s
  Parallel strategy changed for perturbation using 128 k-points
  Data is distributed by G-vector(6-way) and k-point(32-way) and band(1-way)
 Perturbation    7 (of   36): Ti    3 X at q=( 0.000, 0.000, 0.000): 148590.59s
 Perturbation    8 (of   36): Ti    3 Y at q=( 0.000, 0.000, 0.000): 150149.30s
  Parallel strategy changed for perturbation using 224 k-points
  Data is distributed by G-vector(6-way) and k-point(32-way) and band(1-way)

Writing analysis data to ti64_hex_phonon_VV.castep_bin

Writing model to ti64_hex_phonon_VV.check
 Perturbation    9 (of   36): Ti    3 Z at q=( 0.000, 0.000, 0.000): 152859.48s
  Parallel strategy changed for perturbation using 128 k-points
  Data is distributed by G-vector(6-way) and k-point(32-way) and band(1-way)
 Perturbation   10 (of   36): Ti    4 X at q=( 0.000, 0.000, 0.000): 154499.55s
 Perturbation   11 (of   36): Ti    4 Y at q=( 0.000, 0.000, 0.000): 156080.11s
  Parallel strategy changed for perturbation using 224 k-points
  Data is distributed by G-vector(6-way) and k-point(32-way) and band(1-way)

Writing analysis data to ti64_hex_phonon_VV.castep_bin

Writing model to ti64_hex_phonon_VV.check
 Perturbation   12 (of   36): Ti    4 Z at q=( 0.000, 0.000, 0.000): 158856.60s
  Parallel strategy changed for perturbation using 128 k-points
  Data is distributed by G-vector(6-way) and k-point(32-way) and band(1-way)
 Perturbation   13 (of   36): Ti    5 X at q=( 0.000, 0.000, 0.000): 160470.79s
 Perturbation   14 (of   36): Ti    5 Y at q=( 0.000, 0.000, 0.000): 162011.47s
  Parallel strategy changed for perturbation using 224 k-points
  Data is distributed by G-vector(6-way) and k-point(32-way) and band(1-way)

Writing analysis data to ti64_hex_phonon_VV.castep_bin

Writing model to ti64_hex_phonon_VV.check
 Perturbation   15 (of   36): Ti    5 Z at q=( 0.000, 0.000, 0.000): 164631.92s
  Parallel strategy changed for perturbation using 128 k-points
  Data is distributed by G-vector(6-way) and k-point(32-way) and band(1-way)
 Perturbation   16 (of   36): Ti    6 X at q=( 0.000, 0.000, 0.000): 166252.01s
 Perturbation   17 (of   36): Ti    6 Y at q=( 0.000, 0.000, 0.000): 167821.22s
  Parallel strategy changed for perturbation using 224 k-points
  Data is distributed by G-vector(6-way) and k-point(32-way) and band(1-way)

Writing analysis data to ti64_hex_phonon_VV.castep_bin

Writing model to ti64_hex_phonon_VV.check
 Perturbation   18 (of   36): Ti    6 Z at q=( 0.000, 0.000, 0.000): 170599.46s
  Parallel strategy changed for perturbation using 128 k-points
  Data is distributed by G-vector(6-way) and k-point(32-way) and band(1-way)
 Perturbation   19 (of   36): Ti    7 X at q=( 0.000, 0.000, 0.000): 172188.38s
 +-------------------------------------------------+
 |                                                 |
 |      CCC   AA    SSS  TTTTT  EEEEE  PPPP        |
 |     C     A  A  S       T    E      P   P       |
 |     C     AAAA   SS     T    EEE    PPPP        |
 |     C     A  A     S    T    E      P           |
 |      CCC  A  A  SSS     T    EEEEE  P           |
 |                                                 |
 +-------------------------------------------------+
 |                                                 |
 | Welcome to Academic Release CASTEP version 24.1 |
 | Ab Initio Total Energy Program                  |
 |                                                 |
 | Authors:                                        |
 | M. Segall, M. Probert, C. Pickard, P. Hasnip,   |
 | S. Clark, K. Refson, J. R. Yates,               |
 | A. Bartok-Partay, M. Payne                      |
 |                                                 |
 | Contributors:                                   |
 | P. Lindan, P. Haynes, J. White, V. Milman,      |
 | N. Govind, M. Gibson, P. Tulip, V. Cocula,      |
 | B. Montanari, D. Quigley, M. Glover,            |
 | L. Bernasconi, A. Perlov, M. Plummer,           |
 | E. McNellis, J. Meyer, J. Gale, D. Jochym       |
 | J. Aarons, B. Walker, R. Gillen, D. Jones       |
 | T. Green, I. J. Bush, C. J. Armstrong,          |
 | E. J. Higgins, E. L. Brown, M. S. McFly,        |
 | J. Wilkins, B-C. Shih, P. J. P. Byrne,          |
 | R. J. Maurer, J. C. Womack, J. Dziedzic,        |
 | L. LeBlanc, T. K. Stenczel, J. Kermode,         |
 | S. Sturniolo, B. Shi, B. Durham, M. Evans,      |
 | M. J. Smith, A. Tamerus, Z. Hawkhead,           |
 | V. Ravindran, T. Hollins, S. A. Joyce,          |
 | R. T. Strong, A. M. Reilly                      |
 |                                                 |
 | Copyright (c) 2000 - 2023                       |
 |                                                 |
 |     Distributed under license from Cambridge    |
 |     Enterprise for academic use only.           |
 |                                                 |
 | Please cite                                     |
 |                                                 |
 |     "First principles methods using CASTEP"     |
 |                                                 |
 |         Zeitschrift fuer Kristallographie       |
 |           220(5-6) pp. 567-570 (2005)           |
 |                                                 |
 | S. J. Clark, M. D. Segall, C. J. Pickard,       |
 | P. J. Hasnip, M. J. Probert, K. Refson,         |
 | M. C. Payne                                     |
 |                                                 |
 |       in all publications arising from          |
 |              your use of CASTEP                 |
 |                                                 |
 +-------------------------------------------------+
 |                                                 |
 |              http://www.castep.org              |
 |                                                 |
 +-------------------------------------------------+



 Compiled for linux_x86_64_gfortran10 on Tue, 02 May 2023 15:31:46 +0100
 from code version db08e394c+  default  Mon May 1 16:40:39 2023 +0100
 Compiler: GNU Fortran 10.2.0; Optimisation: fast
 Comms   : Open MPI v4.0.5
 MATHLIBS: openblas (LAPACK version 3.9.0)
 FFT Lib : fftw3 version fftw-3.3.8-sse2-avx-avx2-avx2_128
 Fundamental constants values: CODATA 2018

 Run started: Wed, 15 May 2024 15:44:35 +0100
 +-------------------------------------------------+
 |                                                 |
 |  D D D D    F F F F F  P P P P     T T T T T    |
 |  D       D  F          P       P       T        |
 |  D       D  F F F F    P P P P         T        |
 |  D       D  F          P               T        |
 |  D D D D    F          P               T        |
 |                                                 |
 +-------------------------------------------------+
 |                                                 |
 | Welcome to Castep Linear Response (DFPT)        |
 |                                                 |
 | Copyright (c) 2006 - 2023                       |
 |                                                 |
 | Please cite the following publications in all   |
 | work arising from your use of CASTEP LR.        |
 |                                                 |
 | K. Refson, S. J. Clark and P. R. Tulip          |
 | Variational density functional perturbation     |
 | theory for dielectrics and lattice dynamics     |
 | Phys. Rev. B 73(15), 155114 (2006)              |
 +-------------------------------------------------+

Reading continuation data from model file ti64_hex_phonon_VV.check

 Atomic calculation performed for Ti: 1s2 2s2 2p6 3s2 3p6 3d2 4s2

 Converged in 79 iterations to an ae energy of -23226.658 eV

   ============================================================                
   | Pseudopotential Report - Date of generation 15-05-2024   |                
   ------------------------------------------------------------                
   | Element: Ti Ionic charge: 12.00 Level of theory: PBE     |                
   | Atomic Solver: Koelling-Harmon                           |                
   |                                                          |                
   |               Reference Electronic Structure             |                
   |         Orbital         Occupation         Energy        |                
   |            3s              2.000           -2.302        |                
   |            3p              6.000           -1.428        |                
   |            4s              2.000           -0.164        |                
   |            3d              2.000           -0.157        |                
   |                                                          |                
   |                 Pseudopotential Definition               |                
   |        Beta     l      e      Rc     scheme   norm       |                
   |          1      0   -2.302   1.793     qc      0         |                
   |          2      0   -0.164   1.793     qc      0         |                
   |          3      0    0.250   1.793     qc      0         |                
   |          4      1   -1.428   1.793     qc      0         |                
   |          5      1    0.250   1.793     qc      0         |                
   |          6      2   -0.157   1.793     qc      0         |                
   |          7      2    0.250   1.793     qc      0         |                
   |         loc     3    0.000   1.793     pn      0         |                
   |                                                          |                
   | Augmentation charge Rinner = 1.263                       |                
   | Partial core correction Rc = 1.263                       |                
   ------------------------------------------------------------                
   | "3|1.8|9|10|11|30U:40:31:32(qc=5.5)"                     |                
   ------------------------------------------------------------                
   |      Author: Chris J. Pickard, Cambridge University      |                
   ============================================================                

 Atomic calculation performed for V: 1s2 2s2 2p6 3s2 3p6 3d3 4s2

 Converged in 81 iterations to an ae energy of -25823.733 eV

   ============================================================                
   | Pseudopotential Report - Date of generation 15-05-2024   |                
   ------------------------------------------------------------                
   | Element: V Ionic charge: 13.00 Level of theory: PBE      |                
   | Atomic Solver: Koelling-Harmon                           |                
   |                                                          |                
   |               Reference Electronic Structure             |                
   |         Orbital         Occupation         Energy        |                
   |            3s              2.000           -2.581        |                
   |            3p              6.000           -1.618        |                
   |            3d              3.000           -0.190        |                
   |            4s              2.000           -0.173        |                
   |                                                          |                
   |                 Pseudopotential Definition               |                
   |        Beta     l      e      Rc     scheme   norm       |                
   |          1      0   -2.581   1.803     qc      0         |                
   |          2      0   -0.173   1.803     qc      0         |                
   |          3      0    0.250   1.803     qc      0         |                
   |          4      1   -1.618   1.803     qc      0         |                
   |          5      1    0.250   1.803     qc      0         |                
   |          6      2   -0.190   1.803     qc      0         |                
   |          7      2    0.250   1.803     qc      0         |                
   |         loc     3    0.000   1.803     pn      0         |                
   |                                                          |                
   | Augmentation charge Rinner = 0.600                       |                
   | Partial core correction Rc = 0.600                       |                
   ------------------------------------------------------------                
   | "3|1.8|1.8|0.6|12|14|16|30U:40:31:32(qc=7)"              |                
   ------------------------------------------------------------                
   |      Author: Chris J. Pickard, Cambridge University      |                
   ============================================================                

 Pseudo atomic calculation performed for Ti 3s2 3p6 3d2 4s2

 Converged in 51 iterations to a total energy of -1587.0236 eV

 Pseudo atomic calculation performed for V 3s2 3p6 3d3 4s2

 Converged in 52 iterations to a total energy of -2065.7874 eV
Initialising basis set for model.
Reinitialising basis set for current geometry.
Continuing from previous run with ground state wavefunction.
Continuing from previous run with ground state density.
 Calculation parallelised over 384 processes.
 Data is distributed by G-vector(12-way) and k-point(32-way)

 ************************************ Title ************************************
 

 ***************************** General Parameters ******************************
  
 output verbosity                               : normal  (1)
 continuing from                                : ti64_hex_phonon_VV.check
 write checkpoint data to                       : ti64_hex_phonon_VV.check
 type of calculation                            : phonon calculation
 stress calculation                             : on
 density difference calculation                 : off
 electron localisation func (ELF) calculation   : off
 Hirshfeld analysis                             : off
 polarisation (Berry phase) analysis            : off
 molecular orbital projected DOS                : off
 deltaSCF calculation                           : off
 unlimited duration calculation
 timing information                             : on
 memory usage estimate                          : on
 write extra output files                       : on
 write final potential to formatted file        : off
 write final density to formatted file          : off
 write structure in CELL formatted file         : on
 write BibTeX reference list                    : on
 write OTFG pseudopotential files               : on
 write electrostatic potential file             : on
 write bands file                               : on
 checkpoint writing                             : both castep_bin and check files
  
 output         length unit                     : A
 output           mass unit                     : amu
 output           time unit                     : ps
 output         charge unit                     : e
 output           spin unit                     : hbar/2
 output         energy unit                     : eV
 output          force unit                     : eV/A
 output       velocity unit                     : A/ps
 output       pressure unit                     : GPa
 output     inv_length unit                     : 1/A
 output      frequency unit                     : THz
 output force constant unit                     : eV/A**2
 output         volume unit                     : A**3
 output   IR intensity unit                     : (D/A)**2/amu
 output         dipole unit                     : D
 output         efield unit                     : eV/A/e
 output        entropy unit                     : J/mol/K
 output    efield chi2 unit                     : pm/V
  
 wavefunctions paging                           : none
 random number generator seed                   :  150947359
 data distribution                              : k-point only
 optimization strategy                          : maximize speed(+++)

 *********************** Exchange-Correlation Parameters ***********************
  
 using functional                               : Perdew Burke Ernzerhof
 relativistic treatment                         : Koelling-Harmon
 DFT+D: Semi-empirical dispersion correction    : off

 ************************* Pseudopotential Parameters **************************
  
 pseudopotential representation                 : reciprocal space
 <beta|phi> representation                      : reciprocal space
 spin-orbit coupling                            : off

 **************************** Basis Set Parameters *****************************
  
 plane wave basis set cut-off                   :   800.0000   eV
 size of standard grid                          :     2.0000
 size of   fine   grid                          :     4.0000
 size of   fine   gmax                          :    57.9620   1/A
 largest prime factor in FFT                    :          5
 finite basis set correction                    : automatic
 number of sample energies                      :          3
           sample  spacing                      :     5.0000   eV

 **************************** Electronic Parameters ****************************
  
 number of  electrons                           :  146.0    
 net charge of system                           :  0.000    
 treating system as non-spin-polarized
 number of bands                                :        108

 ********************* Electronic Minimization Parameters **********************
  
 Method: Treating system as metallic with density mixing treatment of electrons,
         and number of  SD  steps               :          1
         and number of  CG  steps               :          4
  
 total energy / atom convergence tol.           : 0.1000E-08   eV
 eigen-energy convergence tolerance             : 0.1111E-09   eV
 max force / atom convergence tol.              : ignored
 convergence tolerance window                   :          3   cycles
 max. number of SCF cycles                      :         30
 number of fixed-spin iterations                :         10
 smearing scheme                                : Gaussian
 smearing width                                 : 0.5000E-01   eV
 Fermi energy convergence tolerance             : 0.2721E-13   eV
 periodic dipole correction                     : NONE

 ************************** Density Mixing Parameters **************************
  
 density-mixing scheme                          : Pulay
 max. length of mixing history                  :         20
 charge density mixing amplitude                : 0.8000    
 cut-off energy for mixing                      :  800.0       eV
 charge density mixing g-vector                 :  1.500       1/A

 *********************** Population Analysis Parameters ************************
  
 Population analysis with cutoff                :  3.000       A
 Population analysis output                     : summary and pdos components

 ****************************** Phonon Parameters ******************************
  
 phonon calculation method                      : finite displacement
 finite displacement amplitude                  : 0.1000E-01   A
 fine phonon calculation method                 : interpolation
 non-periodic force constant method             : Weighted cumulant sum
 force constant cutoff scale factor             :     1.0000
 LO/TO splitting term                           : not included
 acoustic phonon sum rule                       : correct D(q) in recip-space
 Born effective charges                         : not calculated
 Raman intensities                              : not calculated
 phonon extra output                            : real-space force constants
 phonon k-points                                : use reduced set
 phonon DOS                                     : not calculated
 backups results every                          :       3600   seconds
 band convergence tolerance                     : 0.1000E-08   eV

 ******************************* Developer Code ********************************
  
 PARALLEL: kpoints=64 : ENDPARALLEL
 PHONON: DENSITY_SCHEME=NONE FD_WVFN_SCHEME=NONE COMMS_REASSIGN=F : ENDPHONON
 no_improve_wvfn

 *******************************************************************************
  

                           -------------------------------
                                      Unit Cell
                           -------------------------------
        Real Lattice(A)                      Reciprocal Lattice(1/A)
     7.8732420     0.0000000     0.0000000        0.798042955  -0.000000000  -0.000000000
     0.0000000     4.5456190     0.0000000        0.000000000   1.382250758  -0.000000000
     0.0000000     0.0000000     5.5284440        0.000000000   0.000000000   1.136519662

                       Lattice parameters(A)       Cell Angles
                    a =      7.873242          alpha =   90.000000
                    b =      4.545619          beta  =   90.000000
                    c =      5.528444          gamma =   90.000000

                       Current cell volume =           197.856147       A**3
                                   density =             2.934218   AMU/A**3
                                           =             4.872383     g/cm^3

                           -------------------------------
                                     Cell Contents
                           -------------------------------
                         Total number of ions in cell =   12
                      Total number of species in cell =    2
                        Max number of any one species =   10

            xxxxxxxxxxxxxxxxxxxxxxxxxxxxxxxxxxxxxxxxxxxxxxxxxxxxxxxxxxxx
            x  Element    Atom        Fractional coordinates of atoms  x
            x            Number           u          v          w      x
            x----------------------------------------------------------x
            x  Ti           1         0.325884   0.000000   0.246045   x 
            x  Ti           2         0.496417   0.500000   0.001159   x 
            x  Ti           3         0.670747   0.000000   0.247008   x 
            x  Ti           4         0.843088   0.500000   0.244815   x 
            x  Ti           5         0.001735   0.000000   0.500203   x 
            x  Ti           6         0.162986   0.500000   0.755881   x 
            x  Ti           7         0.331633   0.000000   0.753452   x 
            x  Ti           8         0.497526   0.500000   0.499866   x 
            x  Ti           9         0.670239   0.000000   0.753294   x 
            x  Ti          10         0.834599   0.500000   0.755008   x 
            x  V            1         0.999995   0.000000   0.999277   x 
            x  V            2         0.165150   0.500000   0.243992   x 
            xxxxxxxxxxxxxxxxxxxxxxxxxxxxxxxxxxxxxxxxxxxxxxxxxxxxxxxxxxxx


                         No user defined ionic velocities

                           -------------------------------
                                   Details of Species
                           -------------------------------

                               Mass of species in AMU
                                    Ti   47.8670000
                                    V   50.9415000

                          Electric Quadrupole Moment (Barn)
                                    Ti    0.3020000 Isotope 47
                                    V   -0.0520000 Isotope 51

                          Files used for pseudopotentials:
                                    Ti 3|1.8|9|10|11|30U:40:31:32(qc=5.5)
                                    V 3|1.8|1.8|0.6|12|14|16|30U:40:31:32(qc=7)

                           -------------------------------
                              k-Points For BZ Sampling
                           -------------------------------
                       MP grid size for SCF calculation is  7 11 10
                            with an offset of   0.000  0.000  0.000
                       Number of kpoints used =           210

                           -------------------------------
                               Symmetry and Constraints
                           -------------------------------

                      Maximum deviation from symmetry = 0.940008E-15     ANG

                      Number of symmetry operations   =           2
                      Number of ionic constraints     =           3
                      Point group of crystal =     3: Cs, m, m
                      Space group of crystal =     6: Pm, P -2y

             Set iprint > 1 for details on symmetry rotations/translations

                         Centre of mass is constrained
             Set iprint > 1 for details of linear ionic constraints

                         Number of cell constraints= 2
                         Cell constraints are:  1 2 3 0 5 0

                         External pressure/stress (GPa)
                          0.00000   0.00000   0.00000
                                    0.00000   0.00000
                                              0.00000

 Finite displacement calculation will use NONE scheme to initialised displaced electron density.
 Restarting Phonon calculation:  Dynamical matrices from supercells 1 to       2 recovered from .check file.

 Phonon supercell    1 (of 7)      [  0 -1  0; -1  0  0;  0  0 -2]:      18.00s
 -------------------------------------------------------------------------------

 Phonon supercell    2 (of 7)      [  0  0  1;  1  0  0;  0  2  0]:      18.00s
 -------------------------------------------------------------------------------

 Phonon supercell    3 (of 7)      [  0  1  1;  0 -1  1;  1  0  0]:      18.00s
 -------------------------------------------------------------------------------
 Restarting dynamical matrix calculation from .check in phonon_finite_displacement
 Perturbation   18 (of   36): Ti    6 Z at q=( 0.000, 0.000, 0.000):     20.73s
  Parallel strategy changed for perturbation using 128 k-points
  Data is distributed by G-vector(12-way) and k-point(32-way) and band(1-way)
  +---------------- MEMORY AND SCRATCH DISK ESTIMATES PER PROCESS --------------+
  |                                                     Memory          Disk    |
  | Baseline code, static data and system overhead      591.0 MB         0.0 MB |
  | BLAS internal memory storage                          0.0 MB         0.0 MB |
  | Model and support data                              578.5 MB         0.0 MB |
  | Finite displacement phonon requirements             138.0 MB         0.0 MB |
  |                                               ----------------------------- |
  | Approx. total storage required per process         1307.4 MB         0.0 MB |
  |                                                                             |
  | Requirements will fluctuate during execution and may exceed these estimates |
  +-----------------------------------------------------------------------------+
 Perturbation   19 (of   36): Ti    7 X at q=( 0.000, 0.000, 0.000):    696.65s
 Perturbation   20 (of   36): Ti    7 Y at q=( 0.000, 0.000, 0.000):   1369.40s
  Parallel strategy changed for perturbation using 224 k-points
  Data is distributed by G-vector(12-way) and k-point(32-way) and band(1-way)
  +---------------- MEMORY AND SCRATCH DISK ESTIMATES PER PROCESS --------------+
  |                                                     Memory          Disk    |
  | Baseline code, static data and system overhead      591.0 MB         0.0 MB |
  | BLAS internal memory storage                          0.0 MB         0.0 MB |
  | Model and support data                              578.5 MB         0.0 MB |
  | Finite displacement phonon requirements             157.8 MB         0.0 MB |
  |                                               ----------------------------- |
  | Approx. total storage required per process         1327.3 MB         0.0 MB |
  |                                                                             |
  | Requirements will fluctuate during execution and may exceed these estimates |
  +-----------------------------------------------------------------------------+
 Perturbation   21 (of   36): Ti    7 Z at q=( 0.000, 0.000, 0.000):   2503.82s
  Parallel strategy changed for perturbation using 128 k-points
  Data is distributed by G-vector(12-way) and k-point(32-way) and band(1-way)
 Perturbation   22 (of   36): Ti    8 X at q=( 0.000, 0.000, 0.000):   3191.98s

Writing analysis data to ti64_hex_phonon_VV.castep_bin

Writing model to ti64_hex_phonon_VV.check
 Perturbation   23 (of   36): Ti    8 Y at q=( 0.000, 0.000, 0.000):   3853.77s
  Parallel strategy changed for perturbation using 224 k-points
  Data is distributed by G-vector(12-way) and k-point(32-way) and band(1-way)
 Perturbation   24 (of   36): Ti    8 Z at q=( 0.000, 0.000, 0.000):   4963.66s
  Parallel strategy changed for perturbation using 128 k-points
  Data is distributed by G-vector(12-way) and k-point(32-way) and band(1-way)
 Perturbation   25 (of   36): Ti    9 X at q=( 0.000, 0.000, 0.000):   5650.54s
 Perturbation   26 (of   36): Ti    9 Y at q=( 0.000, 0.000, 0.000):   6308.38s
  Parallel strategy changed for perturbation using 224 k-points
  Data is distributed by G-vector(12-way) and k-point(32-way) and band(1-way)
 Perturbation   27 (of   36): Ti    9 Z at q=( 0.000, 0.000, 0.000):   7449.81s
  Parallel strategy changed for perturbation using 128 k-points
  Data is distributed by G-vector(12-way) and k-point(32-way) and band(1-way)

Writing analysis data to ti64_hex_phonon_VV.castep_bin

Writing model to ti64_hex_phonon_VV.check
 Perturbation   28 (of   36): Ti   10 X at q=( 0.000, 0.000, 0.000):   8140.67s
 Perturbation   29 (of   36): Ti   10 Y at q=( 0.000, 0.000, 0.000):   8784.20s
  Parallel strategy changed for perturbation using 224 k-points
  Data is distributed by G-vector(12-way) and k-point(32-way) and band(1-way)
 Perturbation   30 (of   36): Ti   10 Z at q=( 0.000, 0.000, 0.000):   9928.26s
  Parallel strategy changed for perturbation using 128 k-points
  Data is distributed by G-vector(12-way) and k-point(32-way) and band(1-way)
 Perturbation   31 (of   36): V     1 X at q=( 0.000, 0.000, 0.000):  10613.35s
 Perturbation   32 (of   36): V     1 Y at q=( 0.000, 0.000, 0.000):  11259.16s
  Parallel strategy changed for perturbation using 224 k-points
  Data is distributed by G-vector(12-way) and k-point(32-way) and band(1-way)

Writing analysis data to ti64_hex_phonon_VV.castep_bin

Writing model to ti64_hex_phonon_VV.check
 Perturbation   33 (of   36): V     1 Z at q=( 0.000, 0.000, 0.000):  12384.65s
[...]
 +    28       6.593079   a                                                   + 
 +    29       6.901742   a                                                   + 
 +    30       6.959480   a                                                   + 
 +    31       6.966621   b                                                   + 
 +    32       7.176931   a                                                   + 
 +    33       7.302327   a                                                   + 
 +    34       7.481093   a                                                   + 
 +    35       7.628250   a                                                   + 
 +    36       7.769153   a                                                   + 
 + .......................................................................... +
 +        Character table from group theory analysis of eigenvectors          +
 +                           Point Group =   3, Cs                            +
 + .......................................................................... +
 +  Rep  Mul |    E   m                                                       +
 +           | --------                                                       +
 + a      24 |    1   1                                                       +
 + b      12 |    1  -1                                                       +
 + -------------------------------------------------------------------------- +
 +  q-pt=   22 (  0.000000  0.000000  0.500000)     0.0454545455              +
 + -------------------------------------------------------------------------- +
 +  Acoustic sum rule correction <   0.073967 THz applied                     +
 +     N      Frequency irrep.                                                + 
 +                 (THz)                                                      + 
 +                                                                            +
 +     1       2.068161   a                                                   + 
 +     2       2.243557   b                                                   + 
 +     3       2.707345   b                                                   + 
 +     4       2.753724   a                                                   + 
 +     5       2.879473   b                                                   + 
 +     6       2.975065   b                                                   + 
 +     7       3.503194   a                                                   + 
 +     8       3.856247   a                                                   + 
 +     9       3.932220   b                                                   + 
 +    10       4.188561   a                                                   + 
 +    11       4.260472   b                                                   + 
 +    12       4.522467   b                                                   + 
 +    13       4.647084   a                                                   + 
 +    14       5.011414   b                                                   + 
 +    15       5.023371   a                                                   + 
 +    16       5.134193   a                                                   + 
 +    17       5.207572   a                                                   + 
 +    18       5.437649   a                                                   + 
 +    19       5.514883   a                                                   + 
 +    20       5.645872   b                                                   + 
 +    21       5.681822   a                                                   + 
 +    22       5.929042   a                                                   + 
 +    23       6.027605   a                                                   + 
 +    24       6.081059   b                                                   + 
 +    25       6.128696   a                                                   + 
 +    26       6.364971   b                                                   + 
 +    27       6.415128   a                                                   + 
 +    28       6.613314   a                                                   + 
 +    29       6.885509   a                                                   + 
 +    30       6.942870   b                                                   + 
 +    31       6.966822   a                                                   + 
 +    32       7.141730   a                                                   + 
 +    33       7.238497   a                                                   + 
 +    34       7.300825   a                                                   + 
 +    35       7.405643   a                                                   + 
 +    36       7.680979   a                                                   + 
 + .......................................................................... +
 +        Character table from group theory analysis of eigenvectors          +
 +                           Point Group =   3, Cs                            +
 + .......................................................................... +
 +  Rep  Mul |    E   m                                                       +
 +           | --------                                                       +
 + a      24 |    1   1                                                       +
 + b      12 |    1  -1                                                       +
 ==============================================================================

 ******************** Symmetrised Forces ********************
 *                                                          *
 *               Cartesian components (eV/A)                *
 * -------------------------------------------------------- *
 *                         x            y            z      *
 *                                                          *
 * Ti              1      0.00196      0.00000     -0.00023 *
 * Ti              2     -0.00044      0.00000      0.00201 *
 * Ti              3     -0.00028      0.00000      0.00014 *
 * Ti              4      0.00088      0.00000     -0.00073 *
 * Ti              5     -0.00157      0.00000     -0.00142 *
 * Ti              6      0.00189      0.00000      0.00078 *
 * Ti              7      0.00292      0.00000      0.00010 *
 * Ti              8     -0.00078      0.00000     -0.00136 *
 * Ti              9     -0.00290      0.00000      0.00113 *
 * Ti             10     -0.00496      0.00000     -0.00103 *
 * V               1     -0.00209      0.00000      0.00209 *
 * V               2      0.00538      0.00000     -0.00147 *
 *                                                          *
 ************************************************************

 *********** Symmetrised Stress Tensor ***********
 *                                               *
 *          Cartesian components (GPa)           *
 * --------------------------------------------- *
 *             x             y             z     *
 *                                               *
 *  x      0.237703     -0.000000     -0.081297  *
 *  y     -0.000000     -0.284000      0.000000  *
 *  z     -0.081297      0.000000      0.017998  *
 *                                               *
 *  Pressure:    0.0094                          *
 *                                               *
 *************************************************

 Pseudo atomic calculation performed for Ti 3s2 3p6 3d2 4s2

 Converged in 51 iterations to a total energy of -1587.0236 eV

 Pseudo atomic calculation performed for V 3s2 3p6 3d3 4s2

 Converged in 52 iterations to a total energy of -2065.7874 eV
Charge spilling parameter for spin component 1 = 0.06%

            Orbital Populations       
     Ion    Atom   Orbital             Charge
  -------------------------------------------
     Ti     1      S                    2.005
     Ti     1      Px                   2.007
     Ti     1      Py                   2.007
     Ti     1      Pz                   2.006
     Ti     1      S                    0.241
     Ti     1      Dzz                  0.608
     Ti     1      Dzy                  0.491
     Ti     1      Dzx                  0.510
     Ti     1      Dxx-yy               0.556
     Ti     1      Dxy                  0.593
     Ti     1      Px                   0.324
     Ti     1      Py                   0.326
     Ti     1      Pz                   0.333
     Ti     2      S                    2.001
     Ti     2      Px                   2.004
     Ti     2      Py                   2.004
     Ti     2      Pz                   2.005
     Ti     2      S                    0.278
     Ti     2      Dzz                  0.521
     Ti     2      Dzy                  0.604
     Ti     2      Dzx                  0.573
     Ti     2      Dxx-yy               0.449
     Ti     2      Dxy                  0.480
     Ti     2      Px                   0.362
     Ti     2      Py                   0.355
     Ti     2      Pz                   0.324
     Ti     3      S                    2.005
     Ti     3      Px                   2.007
     Ti     3      Py                   2.007
     Ti     3      Pz                   2.006
     Ti     3      S                    0.238
     Ti     3      Dzz                  0.598
     Ti     3      Dzy                  0.501
     Ti     3      Dzx                  0.502
     Ti     3      Dxx-yy               0.581
     Ti     3      Dxy                  0.592
     Ti     3      Px                   0.331
     Ti     3      Py                   0.316
     Ti     3      Pz                   0.332
     Ti     4      S                    2.004
     Ti     4      Px                   2.006
     Ti     4      Py                   2.007
     Ti     4      Pz                   2.006
     Ti     4      S                    0.229
     Ti     4      Dzz                  0.581
     Ti     4      Dzy                  0.523
     Ti     4      Dzx                  0.502
     Ti     4      Dxx-yy               0.614
     Ti     4      Dxy                  0.554
     Ti     4      Px                   0.315
     Ti     4      Py                   0.316
     Ti     4      Pz                   0.339
     Ti     5      S                    2.000
     Ti     5      Px                   2.003
     Ti     5      Py                   2.003
     Ti     5      Pz                   2.004
     Ti     5      S                    0.295
     Ti     5      Dzz                  0.547
     Ti     5      Dzy                  0.557
     Ti     5      Dzx                  0.584
     Ti     5      Dxx-yy               0.447
     Ti     5      Dxy                  0.467
     Ti     5      Px                   0.351
     Ti     5      Py                   0.353
     Ti     5      Pz                   0.356
     Ti     6      S                    2.004
     Ti     6      Px                   2.007
     Ti     6      Py                   2.007
     Ti     6      Pz                   2.006
     Ti     6      S                    0.218
     Ti     6      Dzz                  0.616
     Ti     6      Dzy                  0.484
     Ti     6      Dzx                  0.490
     Ti     6      Dxx-yy               0.594
     Ti     6      Dxy                  0.593
     Ti     6      Px                   0.308
     Ti     6      Py                   0.309
     Ti     6      Pz                   0.336
     Ti     7      S                    2.005
     Ti     7      Px                   2.008
     Ti     7      Py                   2.008
     Ti     7      Pz                   2.007
     Ti     7      S                    0.248
     Ti     7      Dzz                  0.599
     Ti     7      Dzy                  0.490
     Ti     7      Dzx                  0.510
     Ti     7      Dxx-yy               0.604
     Ti     7      Dxy                  0.587
     Ti     7      Px                   0.325
     Ti     7      Py                   0.310
     Ti     7      Pz                   0.330
     Ti     8      S                    2.000
     Ti     8      Px                   2.003
     Ti     8      Py                   2.003
     Ti     8      Pz                   2.004
     Ti     8      S                    0.294
     Ti     8      Dzz                  0.506
     Ti     8      Dzy                  0.622
     Ti     8      Dzx                  0.587
     Ti     8      Dxx-yy               0.453
     Ti     8      Dxy                  0.440
     Ti     8      Px                   0.352
     Ti     8      Py                   0.354
     Ti     8      Pz                   0.329
     Ti     9      S                    2.005
     Ti     9      Px                   2.007
     Ti     9      Py                   2.007
     Ti     9      Pz                   2.006
     Ti     9      S                    0.234
     Ti     9      Dzz                  0.584
     Ti     9      Dzy                  0.510
     Ti     9      Dzx                  0.507
     Ti     9      Dxx-yy               0.593
     Ti     9      Dxy                  0.589
     Ti     9      Px                   0.320
     Ti     9      Py                   0.316
     Ti     9      Pz                   0.335
     Ti    10      S                    2.005
     Ti    10      Px                   2.007
     Ti    10      Py                   2.007
     Ti    10      Pz                   2.007
     Ti    10      S                    0.231
     Ti    10      Dzz                  0.586
     Ti    10      Dzy                  0.524
     Ti    10      Dzx                  0.502
     Ti    10      Dxx-yy               0.588
     Ti    10      Dxy                  0.593
     Ti    10      Px                   0.307
     Ti    10      Py                   0.324
     Ti    10      Pz                   0.336
      V     1      S                    1.999
      V     1      Px                   2.002
      V     1      Py                   2.002
      V     1      Pz                   2.002
      V     1      Dzz                  0.750
      V     1      Dzy                  0.722
      V     1      Dzx                  0.764
      V     1      Dxx-yy               0.764
      V     1      Dxy                  0.639
      V     1      S                    0.329
      V     1      Px                   0.348
      V     1      Py                   0.356
      V     1      Pz                   0.320
      V     2      S                    2.002
      V     2      Px                   2.004
      V     2      Py                   2.004
      V     2      Pz                   2.003
      V     2      Dzz                  0.869
      V     2      Dzy                  0.652
      V     2      Dzx                  0.657
      V     2      Dxx-yy               0.808
      V     2      Dxy                  0.793
      V     2      S                    0.309
      V     2      Px                   0.310
      V     2      Py                   0.328
      V     2      Pz                   0.339
  -------------------------------------------
                           Total:     146.000
  -------------------------------------------

     Atomic Populations (Mulliken)
     -----------------------------
Species          Ion     s       p       d       f      Total   Charge (e)
==========================================================================
  Ti              1     2.245   7.003   2.758   0.000  12.006    -0.006
  Ti              2     2.279   7.054   2.626   0.000  11.960     0.040
  Ti              3     2.243   6.999   2.774   0.000  12.016    -0.016
  Ti              4     2.233   6.990   2.775   0.000  11.998     0.002
  Ti              5     2.296   7.070   2.602   0.000  11.968     0.032
  Ti              6     2.223   6.973   2.777   0.000  11.973     0.027
  Ti              7     2.253   6.987   2.789   0.000  12.029    -0.029
  Ti              8     2.294   7.044   2.607   0.000  11.945     0.055
  Ti              9     2.239   6.992   2.783   0.000  12.014    -0.014
  Ti             10     2.236   6.989   2.793   0.000  12.017    -0.017
  V               1     2.328   7.029   3.638   0.000  12.995     0.005
  V               2     2.311   6.988   3.780   0.000  13.079    -0.079
==========================================================================

                 Bond                   Population      Length (A)
======================================================================
             Ti 4  -- V 2                    0.31        2.53568
             Ti 6  -- Ti 10                  0.23        2.58547
             Ti 1  -- V 2                    0.62        2.60140
             Ti 9  -- Ti 10                  0.56        2.61540
             Ti 6  -- Ti 7                   0.48        2.63228
             Ti 3  -- Ti 4                   0.53        2.64706
             Ti 7  -- Ti 9                   0.21        2.66593
             Ti 6  -- V 2                    0.12        2.69855
             Ti 4  -- Ti 10                 -0.03        2.70870
             Ti 1  -- Ti 3                   0.22        2.71520
             Ti 1  -- Ti 7                   0.05        2.72365
             Ti 3  -- Ti 9                   0.01        2.72947
             Ti 2  -- Ti 8                   0.54        2.75709
             Ti 5  -- V 1                    0.63        2.75914
             Ti 1  -- V 1                    0.21        2.90594
             Ti 1  -- Ti 5                   0.17        2.91334
             Ti 4  -- V 1                    0.06        2.92138
             Ti 9  -- V 1                    0.21        2.93084
             Ti 3  -- V 1                    0.22        2.93180
             Ti 2  -- V 2                    0.24        2.93338
             Ti 6  -- V 1                    0.06        2.93651
             Ti 7  -- V 1                    0.22        2.94357
             Ti 10 -- V 1                    0.11        2.94704
               V 1 -- V 2                    0.18        2.94733
             Ti 5  -- Ti 7                   0.19        2.95068
             Ti 4  -- Ti 5                  -0.02        2.95284
             Ti 2  -- Ti 7                   0.06        2.95368
             Ti 2  -- Ti 6                   0.20        2.95471
             Ti 3  -- Ti 5                   0.17        2.95810
             Ti 5  -- Ti 9                   0.16        2.96135
             Ti 5  -- Ti 6                  -0.00        2.96234
             Ti 1  -- Ti 2                   0.01        2.96669
             Ti 5  -- V 2                    0.13        2.97108
             Ti 7  -- Ti 8                   0.11        2.97271
             Ti 8  -- V 2                    0.18        2.97474
             Ti 5  -- Ti 10                  0.04        2.98021
             Ti 2  -- Ti 3                   0.06        2.98276
             Ti 2  -- Ti 9                   0.05        2.98602
             Ti 6  -- Ti 8                   0.14        2.99011
             Ti 2  -- Ti 10                  0.20        2.99019
             Ti 1  -- Ti 8                   0.06        2.99349
             Ti 8  -- Ti 9                   0.11        2.99629
             Ti 3  -- Ti 8                   0.11        2.99663
======================================================================


Writing analysis data to ti64_hex_phonon_VV.castep_bin

Writing model to ti64_hex_phonon_VV.check
 
 A BibTeX formatted list of references used in this run has been written to 
 ti64_hex_phonon_VV.bib
 
Initialisation time =     78.34 s
Calculation time    =  23375.84 s
Finalisation time   =      4.30 s
Total time          =  23458.48 s
Peak Memory Use     = 3328136 kB
 
Overall parallel efficiency rating: Mediocre (52%)
 
Data was distributed by:-
G-vector (6-way); efficiency rating: Mediocre (53%)
k-point (64-way); efficiency rating: Excellent (96%)
