 +-------------------------------------------------+
 |                                                 |
 |      CCC   AA    SSS  TTTTT  EEEEE  PPPP        |
 |     C     A  A  S       T    E      P   P       |
 |     C     AAAA   SS     T    EEE    PPPP        |
 |     C     A  A     S    T    E      P           |
 |      CCC  A  A  SSS     T    EEEEE  P           |
 |                                                 |
 +-------------------------------------------------+
 |                                                 |
 | Welcome to Academic Release CASTEP version 24.1 |
 | Ab Initio Total Energy Program                  |
 |                                                 |
 | Authors:                                        |
 | M. Segall, M. Probert, C. Pickard, P. Hasnip,   |
 | S. Clark, K. Refson, J. R. Yates,               |
 | A. Bartok-Partay, M. Payne                      |
 |                                                 |
 | Contributors:                                   |
 | P. Lindan, P. Haynes, J. White, V. Milman,      |
 | N. Govind, M. Gibson, P. Tulip, V. Cocula,      |
 | B. Montanari, D. Quigley, M. Glover,            |
 | L. Bernasconi, A. Perlov, M. Plummer,           |
 | E. McNellis, J. Meyer, J. Gale, D. Jochym       |
 | J. Aarons, B. Walker, R. Gillen, D. Jones       |
 | T. Green, I. J. Bush, C. J. Armstrong,          |
 | E. J. Higgins, E. L. Brown, M. S. McFly,        |
 | J. Wilkins, B-C. Shih, P. J. P. Byrne,          |
 | R. J. Maurer, J. C. Womack, J. Dziedzic,        |
 | L. LeBlanc, T. K. Stenczel, J. Kermode,         |
 | S. Sturniolo, B. Shi, B. Durham, M. Evans,      |
 | M. J. Smith, A. Tamerus, Z. Hawkhead,           |
 | V. Ravindran, T. Hollins, S. A. Joyce,          |
 | R. T. Strong, A. M. Reilly                      |
 |                                                 |
 | Copyright (c) 2000 - 2023                       |
 |                                                 |
 |     Distributed under license from Cambridge    |
 |     Enterprise for academic use only.           |
 |                                                 |
 | Please cite                                     |
 |                                                 |
 |     "First principles methods using CASTEP"     |
 |                                                 |
 |         Zeitschrift fuer Kristallographie       |
 |           220(5-6) pp. 567-570 (2005)           |
 |                                                 |
 | S. J. Clark, M. D. Segall, C. J. Pickard,       |
 | P. J. Hasnip, M. J. Probert, K. Refson,         |
 | M. C. Payne                                     |
 |                                                 |
 |       in all publications arising from          |
 |              your use of CASTEP                 |
 |                                                 |
 +-------------------------------------------------+
 |                                                 |
 |              http://www.castep.org              |
 |                                                 |
 +-------------------------------------------------+



 Compiled for linux_x86_64_gfortran10 on Tue, 02 May 2023 12:32:30 +0100
 from code version db08e394c+  default  Mon May 1 16:40:39 2023 +0100
 Compiler: GNU Fortran 10.2.0; Optimisation: fast
 Comms   : Open MPI v4.0.5
 MATHLIBS: openblas (LAPACK version 3.9.0)
 FFT Lib : fftw3 version fftw-3.3.8-sse2-avx-avx2-avx2_128
 Fundamental constants values: CODATA 2018

 Run started: Mon, 26 Feb 2024 23:16:05 +0000
 +-------------------------------------------------+
 |                                                 |
 |  D D D D    F F F F F  P P P P     T T T T T    |
 |  D       D  F          P       P       T        |
 |  D       D  F F F F    P P P P         T        |
 |  D       D  F          P               T        |
 |  D D D D    F          P               T        |
 |                                                 |
 +-------------------------------------------------+
 |                                                 |
 | Welcome to Castep Linear Response (DFPT)        |
 |                                                 |
 | Copyright (c) 2006 - 2023                       |
 |                                                 |
 | Please cite the following publications in all   |
 | work arising from your use of CASTEP LR.        |
 |                                                 |
 | K. Refson, S. J. Clark and P. R. Tulip          |
 | Variational density functional perturbation     |
 | theory for dielectrics and lattice dynamics     |
 | Phys. Rev. B 73(15), 155114 (2006)              |
 +-------------------------------------------------+


 Atomic calculation performed for Al: 1s2 2s2 2p6 3s2 3p1

 Converged in 54 iterations to an ae energy of -6603.783 eV

   ============================================================                
   | Pseudopotential Report - Date of generation 26-02-2024   |                
   ------------------------------------------------------------                
   | Element: Al Ionic charge:  3.00 Level of theory: PBE     |                
   | Atomic Solver: Koelling-Harmon                           |                
   |                                                          |                
   |               Reference Electronic Structure             |                
   |         Orbital         Occupation         Energy        |                
   |            3s              2.000           -0.285        |                
   |            3p              1.000           -0.100        |                
   |                                                          |                
   |                 Pseudopotential Definition               |                
   |        Beta     l      e      Rc     scheme   norm       |                
   |          1      0   -0.285   2.192     qc      0         |                
   |          2      0    0.250   2.192     qc      0         |                
   |          3      1   -0.100   2.192     qc      0         |                
   |          4      1    0.250   2.192     qc      0         |                
   |          5      2    0.000   2.000     qc      0         |                
   |          6      2    0.250   2.000     qc      0         |                
   |         loc     3    0.000   2.192     pn      0         |                
   |                                                          |                
   | Augmentation charge Rinner = 1.398                       |                
   | Partial core correction Rc = 1.398                       |                
   ------------------------------------------------------------                
   | "3|2.2|2.2|1.4|4|5|5|30:31:32U2U2"                       |                
   ------------------------------------------------------------                
   |      Author: Chris J. Pickard, Cambridge University      |                
   ============================================================                

 Atomic calculation performed for Ti: 1s2 2s2 2p6 3s2 3p6 3d2 4s2

 Converged in 79 iterations to an ae energy of -23226.658 eV

   ============================================================                
   | Pseudopotential Report - Date of generation 26-02-2024   |                
   ------------------------------------------------------------                
   | Element: Ti Ionic charge: 12.00 Level of theory: PBE     |                
   | Atomic Solver: Koelling-Harmon                           |                
   |                                                          |                
   |               Reference Electronic Structure             |                
   |         Orbital         Occupation         Energy        |                
   |            3s              2.000           -2.302        |                
   |            3p              6.000           -1.428        |                
   |            4s              2.000           -0.164        |                
   |            3d              2.000           -0.157        |                
   |                                                          |                
   |                 Pseudopotential Definition               |                
   |        Beta     l      e      Rc     scheme   norm       |                
   |          1      0   -2.302   1.793     qc      0         |                
   |          2      0   -0.164   1.793     qc      0         |                
   |          3      0    0.250   1.793     qc      0         |                
   |          4      1   -1.428   1.793     qc      0         |                
   |          5      1    0.250   1.793     qc      0         |                
   |          6      2   -0.157   1.793     qc      0         |                
   |          7      2    0.250   1.793     qc      0         |                
   |         loc     3    0.000   1.793     pn      0         |                
   |                                                          |                
   | Augmentation charge Rinner = 1.263                       |                
   | Partial core correction Rc = 1.263                       |                
   ------------------------------------------------------------                
   | "3|1.8|9|10|11|30U:40:31:32(qc=5.5)"                     |                
   ------------------------------------------------------------                
   |      Author: Chris J. Pickard, Cambridge University      |                
   ============================================================                

 Atomic calculation performed for V: 1s2 2s2 2p6 3s2 3p6 3d3 4s2

 Converged in 81 iterations to an ae energy of -25823.733 eV

   ============================================================                
   | Pseudopotential Report - Date of generation 26-02-2024   |                
   ------------------------------------------------------------                
   | Element: V Ionic charge: 13.00 Level of theory: PBE      |                
   | Atomic Solver: Koelling-Harmon                           |                
   |                                                          |                
   |               Reference Electronic Structure             |                
   |         Orbital         Occupation         Energy        |                
   |            3s              2.000           -2.581        |                
   |            3p              6.000           -1.618        |                
   |            3d              3.000           -0.190        |                
   |            4s              2.000           -0.173        |                
   |                                                          |                
   |                 Pseudopotential Definition               |                
   |        Beta     l      e      Rc     scheme   norm       |                
   |          1      0   -2.581   1.803     qc      0         |                
   |          2      0   -0.173   1.803     qc      0         |                
   |          3      0    0.250   1.803     qc      0         |                
   |          4      1   -1.618   1.803     qc      0         |                
   |          5      1    0.250   1.803     qc      0         |                
   |          6      2   -0.190   1.803     qc      0         |                
   |          7      2    0.250   1.803     qc      0         |                
   |         loc     3    0.000   1.803     pn      0         |                
   |                                                          |                
   | Augmentation charge Rinner = 0.600                       |                
   | Partial core correction Rc = 0.600                       |                
   ------------------------------------------------------------                
   | "3|1.8|1.8|0.6|12|14|16|30U:40:31:32(qc=7)"              |                
   ------------------------------------------------------------                
   |      Author: Chris J. Pickard, Cambridge University      |                
   ============================================================                

 Pseudo atomic calculation performed for Al 3s2 3p1

 Converged in 22 iterations to a total energy of -107.1308 eV

 Pseudo atomic calculation performed for Ti 3s2 3p6 3d2 4s2

 Converged in 51 iterations to a total energy of -1587.0236 eV

 Pseudo atomic calculation performed for V 3s2 3p6 3d3 4s2

 Converged in 52 iterations to a total energy of -2065.7874 eV
 Calculation parallelised over 512 processes.
 Data is distributed by G-vector(8-way) and k-point(64-way)

 ************************************ Title ************************************
 

 ***************************** General Parameters ******************************
  
 output verbosity                               : normal  (1)
 write checkpoint data to                       : ti64_bcc_phonon.check
 type of calculation                            : phonon calculation
 stress calculation                             : on
 density difference calculation                 : off
 electron localisation func (ELF) calculation   : off
 Hirshfeld analysis                             : off
 polarisation (Berry phase) analysis            : off
 molecular orbital projected DOS                : off
 deltaSCF calculation                           : off
 unlimited duration calculation
 timing information                             : on
 memory usage estimate                          : on
 write extra output files                       : on
 write final potential to formatted file        : off
 write final density to formatted file          : off
 write structure in CELL formatted file         : on
 write BibTeX reference list                    : on
 write OTFG pseudopotential files               : on
 write electrostatic potential file             : on
 write bands file                               : on
 checkpoint writing                             : both castep_bin and check files
  
 output         length unit                     : A
 output           mass unit                     : amu
 output           time unit                     : ps
 output         charge unit                     : e
 output           spin unit                     : hbar/2
 output         energy unit                     : eV
 output          force unit                     : eV/A
 output       velocity unit                     : A/ps
 output       pressure unit                     : GPa
 output     inv_length unit                     : 1/A
 output      frequency unit                     : THz
 output force constant unit                     : eV/A**2
 output         volume unit                     : A**3
 output   IR intensity unit                     : (D/A)**2/amu
 output         dipole unit                     : D
 output         efield unit                     : eV/A/e
 output        entropy unit                     : J/mol/K
 output    efield chi2 unit                     : pm/V
  
 wavefunctions paging                           : none
 random number generator seed                   :  231605188
 data distribution                              : k-point only
 optimization strategy                          : maximize speed(+++)

 *********************** Exchange-Correlation Parameters ***********************
  
 using functional                               : Perdew Burke Ernzerhof
 relativistic treatment                         : Koelling-Harmon
 DFT+D: Semi-empirical dispersion correction    : off

 ************************* Pseudopotential Parameters **************************
  
 pseudopotential representation                 : reciprocal space
 <beta|phi> representation                      : reciprocal space
 spin-orbit coupling                            : off

 **************************** Basis Set Parameters *****************************
  
 plane wave basis set cut-off                   :   800.0000   eV
 size of standard grid                          :     2.0000
 size of   fine   grid                          :     4.0000
 size of   fine   gmax                          :    57.9620   1/A
 largest prime factor in FFT                    :          5
 finite basis set correction                    : automatic
 number of sample energies                      :          3
           sample  spacing                      :     5.0000   eV

 **************************** Electronic Parameters ****************************
  
 number of  electrons                           :  88.00    
 net charge of system                           :  0.000    
 treating system as non-spin-polarized
 number of bands                                :         79

 ********************* Electronic Minimization Parameters **********************
  
 Method: Treating system as metallic with density mixing treatment of electrons,
         and number of  SD  steps               :          1
         and number of  CG  steps               :          4
  
 total energy / atom convergence tol.           : 0.1000E-08   eV
 eigen-energy convergence tolerance             : 0.1013E-09   eV
 max force / atom convergence tol.              : ignored
 convergence tolerance window                   :          3   cycles
 max. number of SCF cycles                      :         30
 number of fixed-spin iterations                :         10
 smearing scheme                                : Gaussian
 smearing width                                 : 0.5000E-01   eV
 Fermi energy convergence tolerance             : 0.2721E-13   eV
 periodic dipole correction                     : NONE

 ************************** Density Mixing Parameters **************************
  
 density-mixing scheme                          : Pulay
 max. length of mixing history                  :         20
 charge density mixing amplitude                : 0.8000    
 cut-off energy for mixing                      :  800.0       eV
 charge density mixing g-vector                 :  1.500       1/A

 *********************** Population Analysis Parameters ************************
  
 Population analysis with cutoff                :  3.000       A
 Population analysis output                     : summary and pdos components

 ****************************** Phonon Parameters ******************************
  
 phonon calculation method                      : finite displacement
 finite displacement amplitude                  : 0.1000E-01   A
 fine phonon calculation method                 : interpolation
 non-periodic force constant method             : Weighted cumulant sum
 force constant cutoff scale factor             :     1.0000
 LO/TO splitting term                           : included
 acoustic phonon sum rule                       : correct D(q) in recip-space
 Born effective charges                         : calculated
 Born charge sum rule                           : explicitly enforced
 Raman intensities                              : not calculated
 phonon extra output                            : real-space force constants
 phonon k-points                                : use reduced set
 phonon DOS                                     : not calculated
 no timed backups
 band convergence tolerance                     : 0.1000E-08   eV

 ******************************* Developer Code ********************************
  
 PARALLEL: kpoints=64 : ENDPARALLEL
 no_improve_wvfn

 *******************************************************************************
  

                           -------------------------------
                                      Unit Cell
                           -------------------------------
        Real Lattice(A)                      Reciprocal Lattice(1/A)
    -3.2087965     3.2087965     3.2087965        0.000000000   0.979056362   0.979056362
     3.2087965    -3.2087965     3.2087965        0.979056362   0.000000000   0.979056362
     3.2087965     3.2087965    -3.2087965        0.979056362   0.979056362   0.000000000

                       Lattice parameters(A)       Cell Angles
                    a =      5.557799          alpha =  109.471221
                    b =      5.557799          beta  =  109.471221
                    c =      5.557799          gamma =  109.471221

                       Current cell volume =           132.155891       A**3
                                   density =             2.762836   AMU/A**3
                                           =             4.587797     g/cm^3

                           -------------------------------
                                     Cell Contents
                           -------------------------------
                         Total number of ions in cell =    8
                      Total number of species in cell =    3
                        Max number of any one species =    6

            xxxxxxxxxxxxxxxxxxxxxxxxxxxxxxxxxxxxxxxxxxxxxxxxxxxxxxxxxxxx
            x  Element    Atom        Fractional coordinates of atoms  x
            x            Number           u          v          w      x
            x----------------------------------------------------------x
            x  Al           1         0.000000   0.000000   0.000000   x 
            x  Ti           1        -0.000000   0.500000  -0.000000   x 
            x  Ti           2         0.000000   0.500000   0.500000   x 
            x  Ti           3         0.500000  -0.000000   0.000000   x 
            x  Ti           4         0.500000   0.000000   0.500000   x 
            x  Ti           5         0.500000   0.500000   0.000000   x 
            x  Ti           6         0.500000   0.500000   0.500000   x 
            x  V            1         0.000000   0.000000   0.500000   x 
            xxxxxxxxxxxxxxxxxxxxxxxxxxxxxxxxxxxxxxxxxxxxxxxxxxxxxxxxxxxx


                         No user defined ionic velocities

                           -------------------------------
                                   Details of Species
                           -------------------------------

                               Mass of species in AMU
                                    Al   26.9815400
                                    Ti   47.8670000
                                    V   50.9415000

                          Electric Quadrupole Moment (Barn)
                                    Al    0.1466000 Isotope 27
                                    Ti    0.3020000 Isotope 47
                                    V   -0.0520000 Isotope 51

                          Files used for pseudopotentials:
                                    Al 3|2.2|2.2|1.4|4|5|5|30:31:32U2U2
                                    Ti 3|1.8|9|10|11|30U:40:31:32(qc=5.5)
                                    V 3|1.8|1.8|0.6|12|14|16|30U:40:31:32(qc=7)

                           -------------------------------
                              k-Points For BZ Sampling
                           -------------------------------
                       MP grid size for SCF calculation is 12 12 12
                            with an offset of   0.000  0.000  0.000
                       Number of kpoints used =           182

                           -------------------------------
                               Symmetry and Constraints
                           -------------------------------

                      Maximum deviation from symmetry = 0.512352E-07     ANG

 !-----------------------------------------------------------------------------!
 !                                                                             !
 !                     * * *      W A R N I N G     * * *                      !
 !                                                                             !
 !   Atomic positions are slightly inconsistent with symmetry operations,      !
 !   (although the discrepancy is lower than value of SYMMETRY_TOL).           !
  !   In severe cases this could lead to seriously inaccurate results.         !
 !                                                                             !
 !   It is recommended that symmetries are satisfied to a tolerance of 1e-8au  !
 !   or better. Consider one or more of the following:                         !
 !     - Adjust input so that atomic positions and symmetry are consistent.    !
 !     - Use SNAP_TO_SYMMETRY keyword in the cell file to adjust co-ordinates. !
 !     - Reduce the value of SYMMETRY_TOL in the cell file.                    !
 !     - Remove incorrect symmetry operations from .cell file.                 !
 !                                                                             !
 !-----------------------------------------------------------------------------!


                      Number of symmetry operations   =          12
                      Number of ionic constraints     =           3
                      Point group of crystal =    20: D3d, -3m, -3 2/m
                      Space group of crystal =   166: R-3m, -R 3 2"

             Set iprint > 1 for details on symmetry rotations/translations

                         Centre of mass is constrained
             Set iprint > 1 for details of linear ionic constraints

                         Number of cell constraints= 2
                         Cell constraints are:  1 1 3 4 4 6

                         External pressure/stress (GPa)
                          0.00000   0.00000   0.00000
                                    0.00000   0.00000
                                              0.00000
 
+---------------- MEMORY AND SCRATCH DISK ESTIMATES PER PROCESS --------------+
|                                                     Memory          Disk    |
| Baseline code, static data and system overhead      593.0 MB         0.0 MB |
| BLAS internal memory storage                          0.0 MB         0.0 MB |
| Model and support data                              970.9 MB         0.0 MB |
| Electronic energy minimisation requirements          38.1 MB         0.0 MB |
| Force calculation requirements                       24.1 MB         0.0 MB |
| Stress calculation requirements                      26.6 MB         0.0 MB |
|                                               ----------------------------- |
| Approx. total storage required per process         1601.9 MB         0.0 MB |
|                                                                             |
| Requirements will fluctuate during execution and may exceed these estimates |
+-----------------------------------------------------------------------------+
Calculating finite basis set correction with  3 cut-off energies.
Calculating total energy with cut-off of  790.000 eV.
------------------------------------------------------------------------ <-- SCF
SCF loop      Energy           Fermi           Energy gain       Timer   <-- SCF
                               energy          per atom          (sec)   <-- SCF
------------------------------------------------------------------------ <-- SCF
Initial  -1.05568871E+004  0.00000000E+000                        26.14  <-- SCF
      1  -1.14146435E+004  1.11889282E+001   1.07219551E+002      28.00  <-- SCF
      2  -1.17333772E+004  9.26172745E+000   3.98417165E+001      29.37  <-- SCF
      3  -1.17492804E+004  8.81708942E+000   1.98789840E+000      30.70  <-- SCF
      4  -1.17496438E+004  7.98792877E+000   4.54335871E-002      34.78  <-- SCF
      5  -1.17499791E+004  8.31039196E+000   4.19081720E-002      38.85  <-- SCF
      6  -1.17484595E+004  8.40322580E+000  -1.89957228E-001      42.94  <-- SCF
      7  -1.17482079E+004  8.45284559E+000  -3.14399578E-002      47.11  <-- SCF
      8  -1.17481685E+004  8.39364929E+000  -4.93114050E-003      51.16  <-- SCF
      9  -1.17481687E+004  8.38053494E+000   2.35497471E-005      55.47  <-- SCF
     10  -1.17481686E+004  8.38069072E+000  -6.27852458E-006      59.70  <-- SCF
     11  -1.17481686E+004  8.38087772E+000  -2.53121259E-007      63.91  <-- SCF
     12  -1.17481686E+004  8.38086894E+000   1.57366367E-009      68.03  <-- SCF
     13  -1.17481686E+004  8.38084847E+000  -9.86174167E-009      71.88  <-- SCF
     14  -1.17481686E+004  8.38086421E+000  -4.89945170E-010      75.44  <-- SCF
     15  -1.17481686E+004  8.38086607E+000  -2.24864338E-010      79.00  <-- SCF
------------------------------------------------------------------------ <-- SCF
 
Final energy, E             =  -11748.14835706     eV
Final free energy (E-TS)    =  -11748.16862360     eV
(energies not corrected for finite basis set)
 
NB est. 0K energy (E-0.5TS)      =  -11748.15849033     eV
 
Calculating total energy with cut-off of  795.000 eV.
------------------------------------------------------------------------ <-- SCF
SCF loop      Energy           Fermi           Energy gain       Timer   <-- SCF
                               energy          per atom          (sec)   <-- SCF
------------------------------------------------------------------------ <-- SCF
Initial  -1.17481499E+004  0.00000000E+000                        86.12  <-- SCF
      1  -1.17481687E+004  8.38085785E+000   2.35131725E-003      87.51  <-- SCF
      2  -1.17481687E+004  8.38085784E+000   2.27725896E-009      91.36  <-- SCF
      3  -1.17481687E+004  8.38086910E+000  -1.69953356E-010      94.87  <-- SCF
      4  -1.17481687E+004  8.38082201E+000   3.38073768E-008      98.77  <-- SCF
      5  -1.17481688E+004  8.38130255E+000   9.16346559E-006     102.80  <-- SCF
      6  -1.17481687E+004  8.38087509E+000  -9.18546459E-006     106.82  <-- SCF
      7  -1.17481688E+004  8.38083019E+000   6.34937038E-007     111.06  <-- SCF
      8  -1.17481687E+004  8.38082166E+000  -6.54929662E-007     115.05  <-- SCF
      9  -1.17481687E+004  8.38090081E+000   9.40466575E-009     119.07  <-- SCF
     10  -1.17481687E+004  8.38085924E+000  -3.75676190E-010     122.75  <-- SCF
     11  -1.17481687E+004  8.38085977E+000  -3.30625983E-011     126.27  <-- SCF
------------------------------------------------------------------------ <-- SCF
 
Final energy, E             =  -11748.14848147     eV
Final free energy (E-TS)    =  -11748.16874805     eV
(energies not corrected for finite basis set)
 
NB est. 0K energy (E-0.5TS)      =  -11748.15861476     eV
 
Calculating total energy with cut-off of  800.000 eV.
------------------------------------------------------------------------ <-- SCF
SCF loop      Energy           Fermi           Energy gain       Timer   <-- SCF
                               energy          per atom          (sec)   <-- SCF
------------------------------------------------------------------------ <-- SCF
Initial  -1.17481501E+004  0.00000000E+000                       133.42  <-- SCF
      1  -1.17481689E+004  8.38085319E+000   2.35124614E-003     134.80  <-- SCF
      2  -1.17481689E+004  8.38085319E+000   2.06998934E-009     138.62  <-- SCF
      3  -1.17481689E+004  8.38087959E+000   2.03447122E-008     142.50  <-- SCF
      4  -1.17481690E+004  8.38044253E+000   1.08076516E-005     146.52  <-- SCF
      5  -1.17481693E+004  8.38169326E+000   3.78783291E-005     150.56  <-- SCF
      6  -1.17481689E+004  8.38089663E+000  -5.07659099E-005     154.56  <-- SCF
      7  -1.17481689E+004  8.38091354E+000   3.01443754E-006     158.65  <-- SCF
      8  -1.17481689E+004  8.38078695E+000  -9.45288688E-007     162.65  <-- SCF
      9  -1.17481689E+004  8.38089339E+000  -8.62663128E-009     166.72  <-- SCF
     10  -1.17481689E+004  8.38085522E+000   5.88746268E-010     170.39  <-- SCF
     11  -1.17481689E+004  8.38085604E+000  -5.89132965E-010     173.97  <-- SCF
------------------------------------------------------------------------ <-- SCF
 
Final energy, E             =  -11748.14860533     eV
Final free energy (E-TS)    =  -11748.16887191     eV
(energies not corrected for finite basis set)
 
NB est. 0K energy (E-0.5TS)      =  -11748.15873862     eV
 
 For future reference: finite basis dEtot/dlog(Ecut) =      -0.019979eV
 Total energy corrected for finite basis set =  -11748.168872 eV
 ??????????????????????????????????????????????????????????????????????????????? 
     WARNING: Calculation of Born effective charges and IR intensities is not    
              implemented for ultrasoft pseudopotentials.                        
              Parameter CALCULATE_BORN_CHARGES changed to .FALSE.                
 ??????????????????????????????????????????????????????????????????????????????? 
 ??????????????????????????????????????????????????????????????????????????????? 
     WARNING: Calculation of LO/TO splitting is not implemented for ultrasoft    
              pseudopotentials.                                                  
              Parameter PHONON_CALC_LO_TO_SPLITTING changed to .FALSE.           
 ??????????????????????????????????????????????????????????????????????????????? 

 Phonon supercell    1 (of 3)      [  1  0  0; -1 -1 -1;  0  1 -1]:     180.71s
 -------------------------------------------------------------------------------
  Parallel strategy changed for perturbation using 165 k-points
  Data is distributed by G-vector(8-way) and k-point(64-way) and band(1-way)
  +---------------- MEMORY AND SCRATCH DISK ESTIMATES PER PROCESS --------------+
  |                                                     Memory          Disk    |
  | Baseline code, static data and system overhead      593.0 MB         0.0 MB |
  | BLAS internal memory storage                          0.0 MB         0.0 MB |
  | Model and support data                              970.9 MB         0.0 MB |
  | Finite displacement phonon requirements             101.5 MB         0.0 MB |
  |                                               ----------------------------- |
  | Approx. total storage required per process         1665.3 MB         0.0 MB |
  |                                                                             |
  | Requirements will fluctuate during execution and may exceed these estimates |
  +-----------------------------------------------------------------------------+
 +-------------------------------------------------+
 |                                                 |
 |      CCC   AA    SSS  TTTTT  EEEEE  PPPP        |
 |     C     A  A  S       T    E      P   P       |
 |     C     AAAA   SS     T    EEE    PPPP        |
 |     C     A  A     S    T    E      P           |
 |      CCC  A  A  SSS     T    EEEEE  P           |
 |                                                 |
 +-------------------------------------------------+
 |                                                 |
 | Welcome to Academic Release CASTEP version 24.1 |
 | Ab Initio Total Energy Program                  |
 |                                                 |
 | Authors:                                        |
 | M. Segall, M. Probert, C. Pickard, P. Hasnip,   |
 | S. Clark, K. Refson, J. R. Yates,               |
 | A. Bartok-Partay, M. Payne                      |
 |                                                 |
 | Contributors:                                   |
 | P. Lindan, P. Haynes, J. White, V. Milman,      |
 | N. Govind, M. Gibson, P. Tulip, V. Cocula,      |
 | B. Montanari, D. Quigley, M. Glover,            |
 | L. Bernasconi, A. Perlov, M. Plummer,           |
 | E. McNellis, J. Meyer, J. Gale, D. Jochym       |
 | J. Aarons, B. Walker, R. Gillen, D. Jones       |
 | T. Green, I. J. Bush, C. J. Armstrong,          |
 | E. J. Higgins, E. L. Brown, M. S. McFly,        |
 | J. Wilkins, B-C. Shih, P. J. P. Byrne,          |
 | R. J. Maurer, J. C. Womack, J. Dziedzic,        |
 | L. LeBlanc, T. K. Stenczel, J. Kermode,         |
 | S. Sturniolo, B. Shi, B. Durham, M. Evans,      |
 | M. J. Smith, A. Tamerus, Z. Hawkhead,           |
 | V. Ravindran, T. Hollins, S. A. Joyce,          |
 | R. T. Strong, A. M. Reilly                      |
 |                                                 |
 | Copyright (c) 2000 - 2023                       |
 |                                                 |
 |     Distributed under license from Cambridge    |
 |     Enterprise for academic use only.           |
 |                                                 |
 | Please cite                                     |
 |                                                 |
 |     "First principles methods using CASTEP"     |
 |                                                 |
 |         Zeitschrift fuer Kristallographie       |
 |           220(5-6) pp. 567-570 (2005)           |
 |                                                 |
 | S. J. Clark, M. D. Segall, C. J. Pickard,       |
 | P. J. Hasnip, M. J. Probert, K. Refson,         |
 | M. C. Payne                                     |
 |                                                 |
 |       in all publications arising from          |
 |              your use of CASTEP                 |
 |                                                 |
 +-------------------------------------------------+
 |                                                 |
 |              http://www.castep.org              |
 |                                                 |
 +-------------------------------------------------+



 Compiled for linux_x86_64_gfortran10 on Tue, 02 May 2023 12:32:30 +0100
 from code version db08e394c+  default  Mon May 1 16:40:39 2023 +0100
 Compiler: GNU Fortran 10.2.0; Optimisation: fast
 Comms   : Open MPI v4.0.5
 MATHLIBS: openblas (LAPACK version 3.9.0)
 FFT Lib : fftw3 version fftw-3.3.8-sse2-avx-avx2-avx2_128
 Fundamental constants values: CODATA 2018

 Run started: Tue, 27 Feb 2024 15:04:17 +0000
 +-------------------------------------------------+
 |                                                 |
 |  D D D D    F F F F F  P P P P     T T T T T    |
 |  D       D  F          P       P       T        |
 |  D       D  F F F F    P P P P         T        |
 |  D       D  F          P               T        |
 |  D D D D    F          P               T        |
 |                                                 |
 +-------------------------------------------------+
 |                                                 |
 | Welcome to Castep Linear Response (DFPT)        |
 |                                                 |
 | Copyright (c) 2006 - 2023                       |
 |                                                 |
 | Please cite the following publications in all   |
 | work arising from your use of CASTEP LR.        |
 |                                                 |
 | K. Refson, S. J. Clark and P. R. Tulip          |
 | Variational density functional perturbation     |
 | theory for dielectrics and lattice dynamics     |
 | Phys. Rev. B 73(15), 155114 (2006)              |
 +-------------------------------------------------+


 Atomic calculation performed for Al: 1s2 2s2 2p6 3s2 3p1

 Converged in 54 iterations to an ae energy of -6603.783 eV

   ============================================================                
   | Pseudopotential Report - Date of generation 27-02-2024   |                
   ------------------------------------------------------------                
   | Element: Al Ionic charge:  3.00 Level of theory: PBE     |                
   | Atomic Solver: Koelling-Harmon                           |                
   |                                                          |                
   |               Reference Electronic Structure             |                
   |         Orbital         Occupation         Energy        |                
   |            3s              2.000           -0.285        |                
   |            3p              1.000           -0.100        |                
   |                                                          |                
   |                 Pseudopotential Definition               |                
   |        Beta     l      e      Rc     scheme   norm       |                
   |          1      0   -0.285   2.192     qc      0         |                
   |          2      0    0.250   2.192     qc      0         |                
   |          3      1   -0.100   2.192     qc      0         |                
   |          4      1    0.250   2.192     qc      0         |                
   |          5      2    0.000   2.000     qc      0         |                
   |          6      2    0.250   2.000     qc      0         |                
   |         loc     3    0.000   2.192     pn      0         |                
   |                                                          |                
   | Augmentation charge Rinner = 1.398                       |                
   | Partial core correction Rc = 1.398                       |                
   ------------------------------------------------------------                
   | "3|2.2|2.2|1.4|4|5|5|30:31:32U2U2"                       |                
   ------------------------------------------------------------                
   |      Author: Chris J. Pickard, Cambridge University      |                
   ============================================================                

 Atomic calculation performed for Ti: 1s2 2s2 2p6 3s2 3p6 3d2 4s2

 Converged in 79 iterations to an ae energy of -23226.658 eV

   ============================================================                
   | Pseudopotential Report - Date of generation 27-02-2024   |                
   ------------------------------------------------------------                
   | Element: Ti Ionic charge: 12.00 Level of theory: PBE     |                
   | Atomic Solver: Koelling-Harmon                           |                
   |                                                          |                
   |               Reference Electronic Structure             |                
   |         Orbital         Occupation         Energy        |                
   |            3s              2.000           -2.302        |                
   |            3p              6.000           -1.428        |                
   |            4s              2.000           -0.164        |                
   |            3d              2.000           -0.157        |                
   |                                                          |                
   |                 Pseudopotential Definition               |                
   |        Beta     l      e      Rc     scheme   norm       |                
   |          1      0   -2.302   1.793     qc      0         |                
   |          2      0   -0.164   1.793     qc      0         |                
   |          3      0    0.250   1.793     qc      0         |                
   |          4      1   -1.428   1.793     qc      0         |                
   |          5      1    0.250   1.793     qc      0         |                
   |          6      2   -0.157   1.793     qc      0         |                
   |          7      2    0.250   1.793     qc      0         |                
   |         loc     3    0.000   1.793     pn      0         |                
   |                                                          |                
   | Augmentation charge Rinner = 1.263                       |                
   | Partial core correction Rc = 1.263                       |                
   ------------------------------------------------------------                
   | "3|1.8|9|10|11|30U:40:31:32(qc=5.5)"                     |                
   ------------------------------------------------------------                
   |      Author: Chris J. Pickard, Cambridge University      |                
   ============================================================                

 Atomic calculation performed for V: 1s2 2s2 2p6 3s2 3p6 3d3 4s2

 Converged in 81 iterations to an ae energy of -25823.733 eV

   ============================================================                
   | Pseudopotential Report - Date of generation 27-02-2024   |                
   ------------------------------------------------------------                
   | Element: V Ionic charge: 13.00 Level of theory: PBE      |                
   | Atomic Solver: Koelling-Harmon                           |                
   |                                                          |                
   |               Reference Electronic Structure             |                
   |         Orbital         Occupation         Energy        |                
   |            3s              2.000           -2.581        |                
   |            3p              6.000           -1.618        |                
   |            3d              3.000           -0.190        |                
   |            4s              2.000           -0.173        |                
   |                                                          |                
   |                 Pseudopotential Definition               |                
   |        Beta     l      e      Rc     scheme   norm       |                
   |          1      0   -2.581   1.803     qc      0         |                
   |          2      0   -0.173   1.803     qc      0         |                
   |          3      0    0.250   1.803     qc      0         |                
   |          4      1   -1.618   1.803     qc      0         |                
   |          5      1    0.250   1.803     qc      0         |                
   |          6      2   -0.190   1.803     qc      0         |                
   |          7      2    0.250   1.803     qc      0         |                
   |         loc     3    0.000   1.803     pn      0         |                
   |                                                          |                
   | Augmentation charge Rinner = 0.600                       |                
   | Partial core correction Rc = 0.600                       |                
   ------------------------------------------------------------                
   | "3|1.8|1.8|0.6|12|14|16|30U:40:31:32(qc=7)"              |                
   ------------------------------------------------------------                
   |      Author: Chris J. Pickard, Cambridge University      |                
   ============================================================                

 Pseudo atomic calculation performed for Al 3s2 3p1

 Converged in 22 iterations to a total energy of -107.1308 eV

 Pseudo atomic calculation performed for Ti 3s2 3p6 3d2 4s2

 Converged in 51 iterations to a total energy of -1587.0236 eV

 Pseudo atomic calculation performed for V 3s2 3p6 3d3 4s2

 Converged in 52 iterations to a total energy of -2065.7874 eV
 Calculation parallelised over 256 processes.
 Data is distributed by G-vector(4-way) and k-point(64-way)

 ************************************ Title ************************************
 

 ***************************** General Parameters ******************************
  
 output verbosity                               : normal  (1)
 write checkpoint data to                       : ti64_bcc_phonon.check
 type of calculation                            : phonon calculation
 stress calculation                             : on
 density difference calculation                 : off
 electron localisation func (ELF) calculation   : off
 Hirshfeld analysis                             : off
 polarisation (Berry phase) analysis            : off
 molecular orbital projected DOS                : off
 deltaSCF calculation                           : off
 unlimited duration calculation
 timing information                             : on
 memory usage estimate                          : on
 write extra output files                       : on
 write final potential to formatted file        : off
 write final density to formatted file          : off
 write structure in CELL formatted file         : on
 write BibTeX reference list                    : on
 write OTFG pseudopotential files               : on
 write electrostatic potential file             : on
 write bands file                               : on
 checkpoint writing                             : both castep_bin and check files
  
 output         length unit                     : A
 output           mass unit                     : amu
 output           time unit                     : ps
 output         charge unit                     : e
 output           spin unit                     : hbar/2
 output         energy unit                     : eV
 output          force unit                     : eV/A
 output       velocity unit                     : A/ps
 output       pressure unit                     : GPa
 output     inv_length unit                     : 1/A
 output      frequency unit                     : THz
 output force constant unit                     : eV/A**2
 output         volume unit                     : A**3
 output   IR intensity unit                     : (D/A)**2/amu
 output         dipole unit                     : D
 output         efield unit                     : eV/A/e
 output        entropy unit                     : J/mol/K
 output    efield chi2 unit                     : pm/V
  
 wavefunctions paging                           : none
 random number generator seed                   :  150417499
 data distribution                              : k-point only
 optimization strategy                          : maximize speed(+++)

 *********************** Exchange-Correlation Parameters ***********************
  
 using functional                               : Perdew Burke Ernzerhof
 relativistic treatment                         : Koelling-Harmon
 DFT+D: Semi-empirical dispersion correction    : off

 ************************* Pseudopotential Parameters **************************
  
 pseudopotential representation                 : reciprocal space
 <beta|phi> representation                      : reciprocal space
 spin-orbit coupling                            : off

 **************************** Basis Set Parameters *****************************
  
 plane wave basis set cut-off                   :   800.0000   eV
 size of standard grid                          :     2.0000
 size of   fine   grid                          :     4.0000
 size of   fine   gmax                          :    57.9620   1/A
 largest prime factor in FFT                    :          5
 finite basis set correction                    : automatic
 number of sample energies                      :          3
           sample  spacing                      :     5.0000   eV

 **************************** Electronic Parameters ****************************
  
 number of  electrons                           :  88.00    
 net charge of system                           :  0.000    
 treating system as non-spin-polarized
 number of bands                                :         79

 ********************* Electronic Minimization Parameters **********************
  
 Method: Treating system as metallic with density mixing treatment of electrons,
         and number of  SD  steps               :          1
         and number of  CG  steps               :          4
  
 total energy / atom convergence tol.           : 0.1000E-08   eV
 eigen-energy convergence tolerance             : 0.1013E-09   eV
 max force / atom convergence tol.              : ignored
 convergence tolerance window                   :          3   cycles
 max. number of SCF cycles                      :         30
 number of fixed-spin iterations                :         10
 smearing scheme                                : Gaussian
 smearing width                                 : 0.5000E-01   eV
 Fermi energy convergence tolerance             : 0.2721E-13   eV
 periodic dipole correction                     : NONE

 ************************** Density Mixing Parameters **************************
  
 density-mixing scheme                          : Pulay
 max. length of mixing history                  :         20
 charge density mixing amplitude                : 0.8000    
 cut-off energy for mixing                      :  800.0       eV
 charge density mixing g-vector                 :  1.500       1/A

 *********************** Population Analysis Parameters ************************
  
 Population analysis with cutoff                :  3.000       A
 Population analysis output                     : summary and pdos components

 ****************************** Phonon Parameters ******************************
  
 phonon calculation method                      : finite displacement
 finite displacement amplitude                  : 0.1000E-01   A
 fine phonon calculation method                 : interpolation
 non-periodic force constant method             : Weighted cumulant sum
 force constant cutoff scale factor             :     1.0000
 LO/TO splitting term                           : included
 acoustic phonon sum rule                       : correct D(q) in recip-space
 Born effective charges                         : calculated
 Born charge sum rule                           : explicitly enforced
 Raman intensities                              : not calculated
 phonon extra output                            : real-space force constants
 phonon k-points                                : use reduced set
 phonon DOS                                     : not calculated
 no timed backups
 band convergence tolerance                     : 0.1000E-08   eV

 ******************************* Developer Code ********************************
  
 PARALLEL: kpoints=64 : ENDPARALLEL
 no_improve_wvfn

 *******************************************************************************
  

                           -------------------------------
                                      Unit Cell
                           -------------------------------
        Real Lattice(A)                      Reciprocal Lattice(1/A)
    -3.2087965     3.2087965     3.2087965        0.000000000   0.979056362   0.979056362
     3.2087965    -3.2087965     3.2087965        0.979056362   0.000000000   0.979056362
     3.2087965     3.2087965    -3.2087965        0.979056362   0.979056362   0.000000000

                       Lattice parameters(A)       Cell Angles
                    a =      5.557799          alpha =  109.471221
                    b =      5.557799          beta  =  109.471221
                    c =      5.557799          gamma =  109.471221

                       Current cell volume =           132.155891       A**3
                                   density =             2.762836   AMU/A**3
                                           =             4.587797     g/cm^3

                           -------------------------------
                                     Cell Contents
                           -------------------------------
                         Total number of ions in cell =    8
                      Total number of species in cell =    3
                        Max number of any one species =    6

            xxxxxxxxxxxxxxxxxxxxxxxxxxxxxxxxxxxxxxxxxxxxxxxxxxxxxxxxxxxx
            x  Element    Atom        Fractional coordinates of atoms  x
            x            Number           u          v          w      x
            x----------------------------------------------------------x
            x  Al           1         0.000000   0.000000   0.000000   x 
            x  Ti           1        -0.000000   0.500000  -0.000000   x 
            x  Ti           2         0.000000   0.500000   0.500000   x 
            x  Ti           3         0.500000  -0.000000   0.000000   x 
            x  Ti           4         0.500000   0.000000   0.500000   x 
            x  Ti           5         0.500000   0.500000   0.000000   x 
            x  Ti           6         0.500000   0.500000   0.500000   x 
            x  V            1         0.000000   0.000000   0.500000   x 
            xxxxxxxxxxxxxxxxxxxxxxxxxxxxxxxxxxxxxxxxxxxxxxxxxxxxxxxxxxxx


                         No user defined ionic velocities

                           -------------------------------
                                   Details of Species
                           -------------------------------

                               Mass of species in AMU
                                    Al   26.9815400
                                    Ti   47.8670000
                                    V   50.9415000

                          Electric Quadrupole Moment (Barn)
                                    Al    0.1466000 Isotope 27
                                    Ti    0.3020000 Isotope 47
                                    V   -0.0520000 Isotope 51

                          Files used for pseudopotentials:
                                    Al 3|2.2|2.2|1.4|4|5|5|30:31:32U2U2
                                    Ti 3|1.8|9|10|11|30U:40:31:32(qc=5.5)
                                    V 3|1.8|1.8|0.6|12|14|16|30U:40:31:32(qc=7)

                           -------------------------------
                              k-Points For BZ Sampling
                           -------------------------------
                       MP grid size for SCF calculation is 12 12 12
                            with an offset of   0.000  0.000  0.000
                       Number of kpoints used =           182

                           -------------------------------
                               Symmetry and Constraints
                           -------------------------------

                      Maximum deviation from symmetry = 0.512352E-07     ANG

 !-----------------------------------------------------------------------------!
 !                                                                             !
 !                     * * *      W A R N I N G     * * *                      !
 !                                                                             !
 !   Atomic positions are slightly inconsistent with symmetry operations,      !
 !   (although the discrepancy is lower than value of SYMMETRY_TOL).           !
  !   In severe cases this could lead to seriously inaccurate results.         !
 !                                                                             !
 !   It is recommended that symmetries are satisfied to a tolerance of 1e-8au  !
 !   or better. Consider one or more of the following:                         !
 !     - Adjust input so that atomic positions and symmetry are consistent.    !
 !     - Use SNAP_TO_SYMMETRY keyword in the cell file to adjust co-ordinates. !
 !     - Reduce the value of SYMMETRY_TOL in the cell file.                    !
 !     - Remove incorrect symmetry operations from .cell file.                 !
 !                                                                             !
 !-----------------------------------------------------------------------------!


                      Number of symmetry operations   =          12
                      Number of ionic constraints     =           3
                      Point group of crystal =    20: D3d, -3m, -3 2/m
                      Space group of crystal =   166: R-3m, -R 3 2"

             Set iprint > 1 for details on symmetry rotations/translations

                         Centre of mass is constrained
             Set iprint > 1 for details of linear ionic constraints

                         Number of cell constraints= 2
                         Cell constraints are:  1 1 3 4 4 6

                         External pressure/stress (GPa)
                          0.00000   0.00000   0.00000
                                    0.00000   0.00000
                                              0.00000
 
+---------------- MEMORY AND SCRATCH DISK ESTIMATES PER PROCESS --------------+
|                                                     Memory          Disk    |
| Baseline code, static data and system overhead      593.0 MB         0.0 MB |
| BLAS internal memory storage                          0.0 MB         0.0 MB |
| Model and support data                             1668.0 MB         0.0 MB |
| Electronic energy minimisation requirements          56.1 MB         0.0 MB |
| Force calculation requirements                       48.2 MB         0.0 MB |
| Stress calculation requirements                      53.1 MB         0.0 MB |
|                                               ----------------------------- |
| Approx. total storage required per process         2317.0 MB         0.0 MB |
|                                                                             |
| Requirements will fluctuate during execution and may exceed these estimates |
+-----------------------------------------------------------------------------+
Calculating finite basis set correction with  3 cut-off energies.
Calculating total energy with cut-off of  790.000 eV.
------------------------------------------------------------------------ <-- SCF
SCF loop      Energy           Fermi           Energy gain       Timer   <-- SCF
                               energy          per atom          (sec)   <-- SCF
------------------------------------------------------------------------ <-- SCF
Initial  -1.05736386E+004  0.00000000E+000                        31.45  <-- SCF
      1  -1.14142187E+004  1.11846502E+001   1.05072512E+002      35.50  <-- SCF
      2  -1.17339933E+004  9.25028122E+000   3.99718270E+001      38.33  <-- SCF
      3  -1.17492878E+004  8.81693848E+000   1.91181150E+000      41.08  <-- SCF
      4  -1.17496471E+004  7.98593988E+000   4.49135538E-002      51.27  <-- SCF
      5  -1.17499745E+004  8.31031893E+000   4.09144351E-002      61.33  <-- SCF
      6  -1.17484586E+004  8.40307479E+000  -1.89485695E-001      71.43  <-- SCF
      7  -1.17482076E+004  8.45251401E+000  -3.13653126E-002      81.67  <-- SCF
      8  -1.17481685E+004  8.39360637E+000  -4.89502907E-003      91.76  <-- SCF
      9  -1.17481687E+004  8.38057554E+000   2.36436412E-005     102.41  <-- SCF
     10  -1.17481686E+004  8.38069235E+000  -6.38901998E-006     112.84  <-- SCF
     11  -1.17481686E+004  8.38087663E+000  -2.51653163E-007     123.27  <-- SCF
     12  -1.17481686E+004  8.38086854E+000   9.16858720E-010     133.53  <-- SCF
     13  -1.17481686E+004  8.38084882E+000  -9.79967680E-009     143.16  <-- SCF
     14  -1.17481686E+004  8.38086429E+000  -4.36967673E-010     152.24  <-- SCF
     15  -1.17481686E+004  8.38086606E+000  -2.10749896E-010     161.30  <-- SCF
------------------------------------------------------------------------ <-- SCF
 
Final energy, E             =  -11748.14835706     eV
Final free energy (E-TS)    =  -11748.16862360     eV
(energies not corrected for finite basis set)
 
NB est. 0K energy (E-0.5TS)      =  -11748.15849033     eV
 
Calculating total energy with cut-off of  795.000 eV.
------------------------------------------------------------------------ <-- SCF
SCF loop      Energy           Fermi           Energy gain       Timer   <-- SCF
                               energy          per atom          (sec)   <-- SCF
------------------------------------------------------------------------ <-- SCF
Initial  -1.17481499E+004  0.00000000E+000                       181.71  <-- SCF
      1  -1.17481687E+004  8.38085786E+000   2.35131726E-003     184.78  <-- SCF
      2  -1.17481687E+004  8.38085786E+000   2.27745231E-009     194.45  <-- SCF
      3  -1.17481687E+004  8.38086905E+000  -1.92768482E-010     203.46  <-- SCF
      4  -1.17481687E+004  8.38082268E+000   3.16857634E-008     213.28  <-- SCF
      5  -1.17481688E+004  8.38129529E+000   8.88684649E-006     223.34  <-- SCF
      6  -1.17481687E+004  8.38087561E+000  -8.94613991E-006     233.34  <-- SCF
      7  -1.17481688E+004  8.38082556E+000   7.36988518E-007     243.46  <-- SCF
      8  -1.17481687E+004  8.38082171E+000  -7.18046743E-007     253.47  <-- SCF
      9  -1.17481687E+004  8.38090076E+000   9.89596436E-009     263.44  <-- SCF
     10  -1.17481687E+004  8.38085921E+000  -3.68135597E-010     272.64  <-- SCF
     11  -1.17481687E+004  8.38085981E+000  -3.71229174E-011     281.60  <-- SCF
------------------------------------------------------------------------ <-- SCF
 
Final energy, E             =  -11748.14848147     eV
Final free energy (E-TS)    =  -11748.16874805     eV
(energies not corrected for finite basis set)
 
NB est. 0K energy (E-0.5TS)      =  -11748.15861476     eV
 
Calculating total energy with cut-off of  800.000 eV.
------------------------------------------------------------------------ <-- SCF
SCF loop      Energy           Fermi           Energy gain       Timer   <-- SCF
                               energy          per atom          (sec)   <-- SCF
------------------------------------------------------------------------ <-- SCF
Initial  -1.17481501E+004  0.00000000E+000                       301.99  <-- SCF
      1  -1.17481689E+004  8.38085293E+000   2.35124630E-003     305.08  <-- SCF
      2  -1.17481689E+004  8.38085293E+000   2.07018269E-009     314.68  <-- SCF
      3  -1.17481689E+004  8.38088191E+000   2.59682541E-008     324.43  <-- SCF
      4  -1.17481690E+004  8.38038880E+000   1.38304884E-005     334.53  <-- SCF
      5  -1.17481692E+004  8.38161083E+000   2.57258911E-005     344.55  <-- SCF
      6  -1.17481689E+004  8.38089514E+000  -4.12335264E-005     354.53  <-- SCF
      7  -1.17481689E+004  8.38091399E+000   2.59491339E-006     364.73  <-- SCF
      8  -1.17481689E+004  8.38078647E+000  -9.34134218E-007     374.73  <-- SCF
      9  -1.17481689E+004  8.38089361E+000  -8.63861889E-009     384.88  <-- SCF
     10  -1.17481689E+004  8.38085553E+000   4.59976148E-010     394.08  <-- SCF
     11  -1.17481689E+004  8.38085602E+000  -5.46596289E-010     402.99  <-- SCF
------------------------------------------------------------------------ <-- SCF
 
Final energy, E             =  -11748.14860533     eV
Final free energy (E-TS)    =  -11748.16887191     eV
(energies not corrected for finite basis set)
 
NB est. 0K energy (E-0.5TS)      =  -11748.15873862     eV
 
 For future reference: finite basis dEtot/dlog(Ecut) =      -0.019979eV
 Total energy corrected for finite basis set =  -11748.168872 eV
 ??????????????????????????????????????????????????????????????????????????????? 
     WARNING: Calculation of Born effective charges and IR intensities is not    
              implemented for ultrasoft pseudopotentials.                        
              Parameter CALCULATE_BORN_CHARGES changed to .FALSE.                
 ??????????????????????????????????????????????????????????????????????????????? 
 ??????????????????????????????????????????????????????????????????????????????? 
     WARNING: Calculation of LO/TO splitting is not implemented for ultrasoft    
              pseudopotentials.                                                  
              Parameter PHONON_CALC_LO_TO_SPLITTING changed to .FALSE.           
 ??????????????????????????????????????????????????????????????????????????????? 

 Phonon supercell    1 (of 3)      [  1  0  0; -1 -1 -1;  0  1 -1]:     421.10s
 -------------------------------------------------------------------------------
  Parallel strategy changed for perturbation using 165 k-points
  Data is distributed by G-vector(4-way) and k-point(64-way) and band(1-way)
  +---------------- MEMORY AND SCRATCH DISK ESTIMATES PER PROCESS --------------+
  |                                                     Memory          Disk    |
  | Baseline code, static data and system overhead      593.0 MB         0.0 MB |
  | BLAS internal memory storage                          0.0 MB         0.0 MB |
  | Model and support data                             1668.0 MB         0.0 MB |
  | Finite displacement phonon requirements             169.4 MB         0.0 MB |
  |                                               ----------------------------- |
  | Approx. total storage required per process         2430.4 MB         0.0 MB |
  |                                                                             |
  | Requirements will fluctuate during execution and may exceed these estimates |
  +-----------------------------------------------------------------------------+
 Perturbation    1 (of   14): Al    1 X at q=( 0.000, 0.000, 0.000):    882.93s
  Parallel strategy changed for perturbation using 165 k-points
  Data is distributed by G-vector(256-way) and k-point(1-way) and band(1-way)
 Perturbation    2 (of   14): Al    1 Y at q=( 0.000, 0.000, 0.000):   9962.88s
  Parallel strategy changed for perturbation using 300 k-points
  Data is distributed by G-vector(4-way) and k-point(64-way) and band(1-way)
  +---------------- MEMORY AND SCRATCH DISK ESTIMATES PER PROCESS --------------+
  |                                                     Memory          Disk    |
  | Baseline code, static data and system overhead      593.0 MB         0.0 MB |
  | BLAS internal memory storage                          0.0 MB         0.0 MB |
  | Model and support data                             1668.0 MB         0.0 MB |
  | Finite displacement phonon requirements             198.1 MB         0.0 MB |
  |                                               ----------------------------- |
  | Approx. total storage required per process         2459.0 MB         0.0 MB |
  |                                                                             |
  | Requirements will fluctuate during execution and may exceed these estimates |
  +-----------------------------------------------------------------------------+
 Perturbation    3 (of   14): Ti    1 X at q=( 0.000, 0.000, 0.000):  10900.99s
  Parallel strategy changed for perturbation using 165 k-points
  Data is distributed by G-vector(256-way) and k-point(1-way) and band(1-way)
 Perturbation    4 (of   14): Ti    1 Y at q=( 0.000, 0.000, 0.000):  19696.07s
  Parallel strategy changed for perturbation using 300 k-points
  Data is distributed by G-vector(4-way) and k-point(64-way) and band(1-way)
 Perturbation    5 (of   14): Ti    2 X at q=( 0.000, 0.000, 0.000):  20871.60s
  Parallel strategy changed for perturbation using 165 k-points
  Data is distributed by G-vector(256-way) and k-point(1-way) and band(1-way)
 Perturbation    6 (of   14): Ti    2 Y at q=( 0.000, 0.000, 0.000):  30143.50s
  Parallel strategy changed for perturbation using 300 k-points
  Data is distributed by G-vector(4-way) and k-point(64-way) and band(1-way)
 Perturbation    7 (of   14): Ti    3 X at q=( 0.000, 0.000, 0.000):  31280.94s
 Perturbation    8 (of   14): Ti    3 Y at q=( 0.000, 0.000, 0.000):  32263.07s
 Perturbation    9 (of   14): Ti    3 Z at q=( 0.000, 0.000, 0.000):  33302.68s
 Perturbation   10 (of   14): Ti    4 X at q=( 0.000, 0.000, 0.000):  34313.85s
 Perturbation   11 (of   14): Ti    4 Y at q=( 0.000, 0.000, 0.000):  35360.93s
 Perturbation   12 (of   14): Ti    4 Z at q=( 0.000, 0.000, 0.000):  36390.09s
 Perturbation   13 (of   14): V     1 X at q=( 0.000, 0.000, 0.000):  37408.27s
  Parallel strategy changed for perturbation using 165 k-points
  Data is distributed by G-vector(256-way) and k-point(1-way) and band(1-way)
 Perturbation   14 (of   14): V     1 Y at q=( 0.000, 0.000, 0.000):  46580.88s
  Parallel strategy changed for perturbation using 300 k-points
  Data is distributed by G-vector(4-way) and k-point(64-way) and band(1-way)

 Phonon supercell    2 (of 3)      [  0  1  0;  0  0 -1; -2 -1 -1]:   47653.11s
 -------------------------------------------------------------------------------
  Parallel strategy changed for perturbation using 150 k-points
  Data is distributed by G-vector(4-way) and k-point(64-way) and band(1-way)

Writing analysis data to ti64_bcc_phonon.castep_bin

Writing model to ti64_bcc_phonon.check
 Perturbation    1 (of   14): Al    1 X at q=( 0.000, 0.000, 0.000):  48124.26s
  Parallel strategy changed for perturbation using 150 k-points
  Data is distributed by G-vector(128-way) and k-point(2-way) and band(1-way)
 Perturbation    2 (of   14): Al    1 Y at q=( 0.000, 0.000, 0.000):  49332.31s
  Parallel strategy changed for perturbation using 300 k-points
  Data is distributed by G-vector(4-way) and k-point(64-way) and band(1-way)
 Perturbation    3 (of   14): Ti    1 X at q=( 0.000, 0.000, 0.000):  50256.50s
  Parallel strategy changed for perturbation using 150 k-points
  Data is distributed by G-vector(128-way) and k-point(2-way) and band(1-way)
 Perturbation    4 (of   14): Ti    1 Y at q=( 0.000, 0.000, 0.000):  51525.70s
  Parallel strategy changed for perturbation using 300 k-points
  Data is distributed by G-vector(4-way) and k-point(64-way) and band(1-way)
 Perturbation    5 (of   14): Ti    2 X at q=( 0.000, 0.000, 0.000):  52594.92s
  Parallel strategy changed for perturbation using 150 k-points
  Data is distributed by G-vector(128-way) and k-point(2-way) and band(1-way)
 Perturbation    6 (of   14): Ti    2 Y at q=( 0.000, 0.000, 0.000):  53904.55s
  Parallel strategy changed for perturbation using 300 k-points
  Data is distributed by G-vector(4-way) and k-point(64-way) and band(1-way)
 Perturbation    7 (of   14): Ti    3 X at q=( 0.000, 0.000, 0.000):  54981.28s
 Perturbation    8 (of   14): Ti    3 Y at q=( 0.000, 0.000, 0.000):  55932.34s
 Perturbation    9 (of   14): Ti    3 Z at q=( 0.000, 0.000, 0.000):  56876.17s
 Perturbation   10 (of   14): Ti    4 X at q=( 0.000, 0.000, 0.000):  57891.13s
 Perturbation   11 (of   14): Ti    4 Y at q=( 0.000, 0.000, 0.000):  58939.62s
 Perturbation   12 (of   14): Ti    4 Z at q=( 0.000, 0.000, 0.000):  59939.82s
 Perturbation   13 (of   14): V     1 X at q=( 0.000, 0.000, 0.000):  60956.86s
  Parallel strategy changed for perturbation using 150 k-points
  Data is distributed by G-vector(128-way) and k-point(2-way) and band(1-way)
 Perturbation   14 (of   14): V     1 Y at q=( 0.000, 0.000, 0.000):  62240.71s
  Parallel strategy changed for perturbation using 300 k-points
  Data is distributed by G-vector(4-way) and k-point(64-way) and band(1-way)

 Phonon supercell    3 (of 3)      [  1  0  1;  0  1  1; -1 -1  0]:   63264.45s
 -------------------------------------------------------------------------------
  Parallel strategy changed for perturbation using 60 k-points
  Data is distributed by G-vector(4-way) and k-point(60-way) and band(1-way)

Writing analysis data to ti64_bcc_phonon.castep_bin

Writing model to ti64_bcc_phonon.check
 Perturbation    1 (of    6): Al    1 X at q=( 0.000, 0.000, 0.000):  63482.89s
  Parallel strategy changed for perturbation using 144 k-points
  Data is distributed by G-vector(4-way) and k-point(64-way) and band(1-way)
 Perturbation    2 (of    6): Ti    1 X at q=( 0.000, 0.000, 0.000):  64269.91s
 Perturbation    3 (of    6): Ti    1 Y at q=( 0.000, 0.000, 0.000):  65002.25s
  Parallel strategy changed for perturbation using 256 k-points
  Data is distributed by G-vector(4-way) and k-point(64-way) and band(1-way)
 Perturbation    4 (of    6): Ti    2 X at q=( 0.000, 0.000, 0.000):  65741.78s
  Parallel strategy changed for perturbation using 144 k-points
  Data is distributed by G-vector(4-way) and k-point(64-way) and band(1-way)
 Perturbation    5 (of    6): Ti    2 Y at q=( 0.000, 0.000, 0.000):  66532.82s
  Parallel strategy changed for perturbation using 256 k-points
  Data is distributed by G-vector(4-way) and k-point(64-way) and band(1-way)
 Perturbation    6 (of    6): V     1 X at q=( 0.000, 0.000, 0.000):  67296.36s
  Parallel strategy changed for perturbation using 144 k-points
  Data is distributed by G-vector(4-way) and k-point(64-way) and band(1-way)
 %%%%%%%%%%%%%%%%%%%%%%%%%%%%%%%%%%%%%%%%%%%%%%%%%%%%%%%%%%%%%%%%%%%%%%%%%%%%%%%%%%%%%%%%%%%%%%%%%%%%%%%%%%%%%%%%%%%
            Force Constant matrix
 Ion XYZ  L          part  (eV/A**2)
 Supercell   1 at (0,0,0)        0.000 A                             
   1   1          6.939787         -0.523897          0.523897         -0.873669          0.899382         -0.899382
                  0.318254          0.010932         -0.010932         -0.931560          0.975553          0.899004
                 -0.088361         -0.018431          0.034456         -0.088361         -0.034456          0.018431
                 -0.931560         -0.899004         -0.975553         -0.727061         -0.697825          0.697825
   1   2         -0.523897          6.939787          0.523897          0.975553         -0.931560          0.899004
                 -0.018431         -0.088361          0.034456          0.899382         -0.873669         -0.899382
                  0.010932          0.318254         -0.010932         -0.034456         -0.088361          0.018431
                 -0.899004         -0.931560         -0.975553         -0.697825         -0.727061          0.697825
   1   3          0.523897          0.523897          6.939787         -0.975553          0.899004         -0.931560
                  0.018431          0.034456         -0.088361          0.899004         -0.975553         -0.931560
                  0.034456          0.018431         -0.088361         -0.010932         -0.010932          0.318254
                 -0.899382         -0.899382         -0.873669          0.697825          0.697825         -0.727061
   2   1         -0.873669          0.975553         -0.975553          3.574987         -0.156436          0.156436
                 -0.767088         -0.748412          0.748412         -0.014988          0.020395         -0.108063
                 -0.018420          0.091848         -0.057711         -0.438820          0.499361          0.813905
                  0.012620         -0.095299         -0.103982         -0.203951         -0.173234          0.173234
   2   2          0.899382         -0.931560          0.899004         -0.156436          4.447442          0.089870
                 -0.673985         -0.237721          0.438029         -0.011599         -0.014988          0.087324
                  0.048496         -0.047132          0.046232          0.555126         -0.394270         -0.709536
                  0.157438          0.707945          0.095299          0.095307         -0.065927          0.063031
   2   3         -0.899382          0.899004         -0.931560          0.156436          0.089870          4.447442
                  0.673985          0.438029         -0.237721          0.087324         -0.108063         -0.078538
                 -0.025498          0.089405         -0.011104          0.814089         -0.751469         -0.777730
                 -0.067328         -0.157438          0.012620         -0.095307          0.063031         -0.065927
   3   1          0.318254         -0.018431          0.018431         -0.767088         -0.673985          0.673985
                  5.166921          0.798000         -0.798000         -0.047132          0.091848          0.089405
                 -0.119832          0.202313          0.014878         -0.166995          0.003573          0.285822
                 -0.777730          0.709536          0.813905         -0.597865          0.405802         -0.405802
   3   2          0.010932         -0.088361          0.034456         -0.748412         -0.237721          0.438029
                  0.798000          2.725319          0.912967          0.048496         -0.018420         -0.025498
                  0.184505         -0.119832         -0.034397          0.020721          0.063459         -0.003573
                  0.751469         -0.394270         -0.499361          0.423728         -0.244886          0.164551
   3   3         -0.010932          0.034456         -0.088361          0.748412          0.438029         -0.237721
[...]
 +    22       8.125256   a                                                   + 
 +    23       9.239732   a                                                   + 
 +    24       9.575110   b                                                   + 
 + .......................................................................... +
 +        Character table from group theory analysis of eigenvectors          +
 +                           Point Group =  20, D3d                           +
 + .......................................................................... +
 +  Rep  Mul |    E   m                                                       +
 +           | --------                                                       +
 + a      14 |    1   1                                                       +
 + b      10 |    1  -1                                                       +
 + -------------------------------------------------------------------------- +
 +  q-pt=   55 (  0.100000  0.100000  0.400000)     0.0175438596              +
 + -------------------------------------------------------------------------- +
 +  Acoustic sum rule correction <   0.057935 THz applied                     +
 +     N      Frequency irrep.                                                + 
 +                 (THz)                                                      + 
 +                                                                            +
 +     1      -2.982326   a                                                   + 
 +     2      -2.841044   b                                                   + 
 +     3      -2.367590   b                                                   + 
 +     4      -1.353122   b                                                   + 
 +     5       1.091944   b                                                   + 
 +     6       1.465868   a                                                   + 
 +     7       2.234413   b                                                   + 
 +     8       2.728087   a                                                   + 
 +     9       2.953434   a                                                   + 
 +    10       3.685943   a                                                   + 
 +    11       3.962700   a                                                   + 
 +    12       4.149740   a                                                   + 
 +    13       4.648390   b                                                   + 
 +    14       5.171936   a                                                   + 
 +    15       5.336558   a                                                   + 
 +    16       5.430489   b                                                   + 
 +    17       5.855661   a                                                   + 
 +    18       6.386444   b                                                   + 
 +    19       6.598635   a                                                   + 
 +    20       6.803720   b                                                   + 
 +    21       6.978021   a                                                   + 
 +    22       7.864080   a                                                   + 
 +    23       9.242447   a                                                   + 
 +    24       9.637352   b                                                   + 
 + .......................................................................... +
 +        Character table from group theory analysis of eigenvectors          +
 +                           Point Group =  20, D3d                           +
 + .......................................................................... +
 +  Rep  Mul |    E   m                                                       +
 +           | --------                                                       +
 + a      14 |    1   1                                                       +
 + b      10 |    1  -1                                                       +
 + -------------------------------------------------------------------------- +
 +  q-pt=   56 (  0.050000  0.050000  0.450000)     0.0175438596              +
 + -------------------------------------------------------------------------- +
 +  Acoustic sum rule correction <   0.067293 THz applied                     +
 +     N      Frequency irrep.                                                + 
 +                 (THz)                                                      + 
 +                                                                            +
 +     1      -2.998172   a                                                   + 
 +     2      -2.972767   b                                                   + 
 +     3      -2.153473   b                                                   + 
 +     4      -1.831809   b                                                   + 
 +     5      -1.238648   b                                                   + 
 +     6       0.704322   a                                                   + 
 +     7       3.086550   b                                                   + 
 +     8       3.087870   a                                                   + 
 +     9       3.392196   a                                                   + 
 +    10       3.574774   a                                                   + 
 +    11       4.071398   a                                                   + 
 +    12       4.255593   a                                                   + 
 +    13       4.428801   b                                                   + 
 +    14       5.045686   b                                                   + 
 +    15       5.171708   a                                                   + 
 +    16       5.216436   a                                                   + 
 +    17       5.762559   a                                                   + 
 +    18       6.403592   b                                                   + 
 +    19       6.636468   a                                                   + 
 +    20       6.822420   b                                                   + 
 +    21       7.007851   a                                                   + 
 +    22       7.635511   a                                                   + 
 +    23       9.248491   a                                                   + 
 +    24       9.667976   b                                                   + 
 + .......................................................................... +
 +        Character table from group theory analysis of eigenvectors          +
 +                           Point Group =  20, D3d                           +
 + .......................................................................... +
 +  Rep  Mul |    E   m                                                       +
 +           | --------                                                       +
 + a      14 |    1   1                                                       +
 + b      10 |    1  -1                                                       +
 + -------------------------------------------------------------------------- +
 +  q-pt=   57 (  0.000000  0.000000  0.500000)     0.0175438596              +
 + -------------------------------------------------------------------------- +
 +  Acoustic sum rule correction <   0.064336 THz applied                     +
 +     N      Frequency irrep.                                                + 
 +                 (THz)                                                      + 
 +                                                                            +
 +     1      -3.012291   a                                                   + 
 +     2      -3.005221   b                                                   + 
 +     3      -2.040753   c                                                   + 
 +     4      -2.027061   b                                                   + 
 +     5      -1.584620   c                                                   + 
 +     6      -0.302961   d                                                   + 
 +     7       3.298634   a                                                   + 
 +     8       3.428380   d                                                   + 
 +     9       3.704815   a                                                   + 
 +    10       3.768672   c                                                   + 
 +    11       3.922842   d                                                   + 
 +    12       3.967721   b                                                   + 
 +    13       4.362619   a                                                   + 
 +    14       4.916192   b                                                   + 
 +    15       5.104342   d                                                   + 
 +    16       5.216071   a                                                   + 
 +    17       5.732547   a                                                   + 
 +    18       6.409328   c                                                   + 
 +    19       6.661152   a                                                   + 
 +    20       6.829002   b                                                   + 
 +    21       7.016540   d                                                   + 
 +    22       7.539379   d                                                   + 
 +    23       9.251002   d                                                   + 
 +    24       9.676950   c                                                   + 
 + .......................................................................... +
 +        Character table from group theory analysis of eigenvectors          +
 +                           Point Group =  20, D3d                           +
 + .......................................................................... +
 +  Rep  Mul |    E   I   2   m                                               +
 +           | ----------------                                               +
 + a       7 |    1   1   1   1                                               +
 + b       5 |    1   1  -1  -1                                               +
 + c       5 |    1  -1   1  -1                                               +
 + d       7 |    1  -1  -1   1                                               +
 ==============================================================================

 ******************** Symmetrised Forces ********************
 *                                                          *
 *               Cartesian components (eV/A)                *
 * -------------------------------------------------------- *
 *                         x            y            z      *
 *                                                          *
 * Al              1      0.00000      0.00000      0.00000 *
 * Ti              1      0.00000      0.00000      0.00000 *
 * Ti              2      0.00000      0.00000      0.00000 *
 * Ti              3      0.00000      0.00000      0.00000 *
 * Ti              4      0.00000      0.00000      0.00000 *
 * Ti              5      0.00000      0.00000      0.00000 *
 * Ti              6      0.00000      0.00000      0.00000 *
 * V               1      0.00000      0.00000      0.00000 *
 *                                                          *
 ************************************************************

 *********** Symmetrised Stress Tensor ***********
 *                                               *
 *          Cartesian components (GPa)           *
 * --------------------------------------------- *
 *             x             y             z     *
 *                                               *
 *  x      0.059826     -0.131534      0.131534  *
 *  y     -0.131534      0.059826      0.131534  *
 *  z      0.131534      0.131534      0.059826  *
 *                                               *
 *  Pressure:   -0.0598                          *
 *                                               *
 *************************************************

 Pseudo atomic calculation performed for Al 3s2 3p1

 Converged in 22 iterations to a total energy of -107.1308 eV

 Pseudo atomic calculation performed for Ti 3s2 3p6 3d2 4s2

 Converged in 51 iterations to a total energy of -1587.0236 eV

 Pseudo atomic calculation performed for V 3s2 3p6 3d3 4s2

 Converged in 52 iterations to a total energy of -2065.7874 eV
Charge spilling parameter for spin component 1 = 0.09%

            Orbital Populations       
     Ion    Atom   Orbital             Charge
  -------------------------------------------
     Al     1      S                    0.923
     Al     1      Px                   0.712
     Al     1      Py                   0.703
     Al     1      Pz                   0.709
     Ti     1      S                    2.003
     Ti     1      Px                   2.006
     Ti     1      Py                   2.006
     Ti     1      Pz                   2.006
     Ti     1      S                    0.284
     Ti     1      Dzz                  0.630
     Ti     1      Dzy                  0.498
     Ti     1      Dzx                  0.480
     Ti     1      Dxx-yy               0.620
     Ti     1      Dxy                  0.490
     Ti     1      Px                   0.318
     Ti     1      Py                   0.348
     Ti     1      Pz                   0.327
     Ti     2      S                    2.004
     Ti     2      Px                   2.006
     Ti     2      Py                   2.006
     Ti     2      Pz                   2.006
     Ti     2      S                    0.286
     Ti     2      Dzz                  0.522
     Ti     2      Dzy                  0.453
     Ti     2      Dzx                  0.650
     Ti     2      Dxx-yy               0.461
     Ti     2      Dxy                  0.661
     Ti     2      Px                   0.290
     Ti     2      Py                   0.323
     Ti     2      Pz                   0.308
     Ti     3      S                    2.003
     Ti     3      Px                   2.006
     Ti     3      Py                   2.005
     Ti     3      Pz                   2.006
     Ti     3      S                    0.284
     Ti     3      Dzz                  0.635
     Ti     3      Dzy                  0.489
     Ti     3      Dzx                  0.493
     Ti     3      Dxx-yy               0.639
     Ti     3      Dxy                  0.497
     Ti     3      Px                   0.317
     Ti     3      Py                   0.345
     Ti     3      Pz                   0.328
     Ti     4      S                    2.004
     Ti     4      Px                   2.006
     Ti     4      Py                   2.006
     Ti     4      Pz                   2.006
     Ti     4      S                    0.269
     Ti     4      Dzz                  0.518
     Ti     4      Dzy                  0.615
     Ti     4      Dzx                  0.477
     Ti     4      Dxx-yy               0.472
     Ti     4      Dxy                  0.617
     Ti     4      Px                   0.302
     Ti     4      Py                   0.304
     Ti     4      Pz                   0.308
     Ti     5      S                    2.004
     Ti     5      Px                   2.006
     Ti     5      Py                   2.006
     Ti     5      Pz                   2.006
     Ti     5      S                    0.279
     Ti     5      Dzz                  0.441
     Ti     5      Dzy                  0.652
     Ti     5      Dzx                  0.636
     Ti     5      Dxx-yy               0.546
     Ti     5      Dxy                  0.473
     Ti     5      Px                   0.304
     Ti     5      Py                   0.324
     Ti     5      Pz                   0.295
     Ti     6      S                    2.003
     Ti     6      Px                   2.006
     Ti     6      Py                   2.006
     Ti     6      Pz                   2.006
     Ti     6      S                    0.285
     Ti     6      Dzz                  0.628
     Ti     6      Dzy                  0.492
     Ti     6      Dzx                  0.483
     Ti     6      Dxx-yy               0.635
     Ti     6      Dxy                  0.495
     Ti     6      Px                   0.318
     Ti     6      Py                   0.347
     Ti     6      Pz                   0.322
      V     1      S                    2.001
      V     1      Px                   2.003
      V     1      Py                   2.003
      V     1      Pz                   2.003
      V     1      Dzz                  0.774
      V     1      Dzy                  0.732
      V     1      Dzx                  0.723
      V     1      Dxx-yy               0.784
      V     1      Dxy                  0.726
      V     1      S                    0.327
      V     1      Px                   0.300
      V     1      Py                   0.325
      V     1      Pz                   0.308
  -------------------------------------------
                           Total:      88.000
  -------------------------------------------

     Atomic Populations (Mulliken)
     -----------------------------
Species          Ion     s       p       d       f      Total   Charge (e)
==========================================================================
  Al              1     0.923   2.125   0.000   0.000   3.048    -0.048
  Ti              1     2.287   7.008   2.735   0.000  12.030    -0.030
  Ti              2     2.282   6.938   2.731   0.000  11.951     0.049
  Ti              3     2.287   7.008   2.735   0.000  12.030    -0.030
  Ti              4     2.282   6.938   2.731   0.000  11.951     0.049
  Ti              5     2.282   6.938   2.731   0.000  11.951     0.049
  Ti              6     2.287   7.008   2.735   0.000  12.030    -0.030
  V               1     2.328   6.943   3.738   0.000  13.009    -0.009
==========================================================================

                 Bond                   Population      Length (A)
======================================================================
              Al 1 -- V 1                    0.56        2.77890
              Al 1 -- Ti 6                   0.54        2.77890
              Ti 1 -- Ti 5                   0.13        2.77890
              Ti 5 -- Ti 6                   0.03        2.77890
              Ti 4 -- V 1                    0.29        2.77890
              Ti 4 -- Ti 6                   0.13        2.77890
              Ti 3 -- Ti 5                   0.13        2.77890
              Ti 3 -- Ti 4                   0.03        2.77890
              Ti 2 -- V 1                    0.29        2.77890
              Ti 2 -- Ti 6                   0.13        2.77890
              Ti 1 -- Ti 2                   0.03        2.77890
              Al 1 -- Ti 3                   0.54        2.77890
              Al 1 -- Ti 1                   0.54        2.77890
              Ti 5 -- V 1                    0.29        2.77890
              Ti 2 -- Ti 3                   0.13        2.77890
              Ti 1 -- Ti 4                   0.13        2.77890
======================================================================


Writing analysis data to ti64_bcc_phonon.castep_bin

Writing model to ti64_bcc_phonon.check
 
 A BibTeX formatted list of references used in this run has been written to 
 ti64_bcc_phonon.bib
 
Initialisation time =     20.24 s
Calculation time    =  68288.27 s
Finalisation time   =      3.66 s
Total time          =  68312.17 s
Peak Memory Use     = 5014520 kB
 
Overall parallel efficiency rating: Terrible (30%)
 
Data was distributed by:-
G-vector (4-way); efficiency rating: Terrible (30%)
k-point (64-way); efficiency rating: Excellent (95%)
