 +-------------------------------------------------+
 |                                                 |
 |      CCC   AA    SSS  TTTTT  EEEEE  PPPP        |
 |     C     A  A  S       T    E      P   P       |
 |     C     AAAA   SS     T    EEE    PPPP        |
 |     C     A  A     S    T    E      P           |
 |      CCC  A  A  SSS     T    EEEEE  P           |
 |                                                 |
 +-------------------------------------------------+
 |                                                 |
 | Welcome to Academic Release CASTEP version 24.1 |
 | Ab Initio Total Energy Program                  |
 |                                                 |
 | Authors:                                        |
 | M. Segall, M. Probert, C. Pickard, P. Hasnip,   |
 | S. Clark, K. Refson, J. R. Yates,               |
 | A. Bartok-Partay, M. Payne                      |
 |                                                 |
 | Contributors:                                   |
 | P. Lindan, P. Haynes, J. White, V. Milman,      |
 | N. Govind, M. Gibson, P. Tulip, V. Cocula,      |
 | B. Montanari, D. Quigley, M. Glover,            |
 | L. Bernasconi, A. Perlov, M. Plummer,           |
 | E. McNellis, J. Meyer, J. Gale, D. Jochym       |
 | J. Aarons, B. Walker, R. Gillen, D. Jones       |
 | T. Green, I. J. Bush, C. J. Armstrong,          |
 | E. J. Higgins, E. L. Brown, M. S. McFly,        |
 | J. Wilkins, B-C. Shih, P. J. P. Byrne,          |
 | R. J. Maurer, J. C. Womack, J. Dziedzic,        |
 | L. LeBlanc, T. K. Stenczel, J. Kermode,         |
 | S. Sturniolo, B. Shi, B. Durham, M. Evans,      |
 | M. J. Smith, A. Tamerus, Z. Hawkhead,           |
 | V. Ravindran, T. Hollins, S. A. Joyce,          |
 | R. T. Strong, A. M. Reilly                      |
 |                                                 |
 | Copyright (c) 2000 - 2023                       |
 |                                                 |
 |     Distributed under license from Cambridge    |
 |     Enterprise for academic use only.           |
 |                                                 |
 | Please cite                                     |
 |                                                 |
 |     "First principles methods using CASTEP"     |
 |                                                 |
 |         Zeitschrift fuer Kristallographie       |
 |           220(5-6) pp. 567-570 (2005)           |
 |                                                 |
 | S. J. Clark, M. D. Segall, C. J. Pickard,       |
 | P. J. Hasnip, M. J. Probert, K. Refson,         |
 | M. C. Payne                                     |
 |                                                 |
 |       in all publications arising from          |
 |              your use of CASTEP                 |
 |                                                 |
 +-------------------------------------------------+
 |                                                 |
 |              http://www.castep.org              |
 |                                                 |
 +-------------------------------------------------+



 Compiled for linux_x86_64_gfortran10 on Tue, 02 May 2023 15:31:46 +0100
 from code version db08e394c+  default  Mon May 1 16:40:39 2023 +0100
 Compiler: GNU Fortran 10.2.0; Optimisation: fast
 Comms   : Open MPI v4.0.5
 MATHLIBS: openblas (LAPACK version 3.9.0)
 FFT Lib : fftw3 version fftw-3.3.8-sse2-avx-avx2-avx2_128
 Fundamental constants values: CODATA 2018

 Run started: Mon, 13 May 2024 20:00:25 +0100
 +-------------------------------------------------+
 |                                                 |
 |  D D D D    F F F F F  P P P P     T T T T T    |
 |  D       D  F          P       P       T        |
 |  D       D  F F F F    P P P P         T        |
 |  D       D  F          P               T        |
 |  D D D D    F          P               T        |
 |                                                 |
 +-------------------------------------------------+
 |                                                 |
 | Welcome to Castep Linear Response (DFPT)        |
 |                                                 |
 | Copyright (c) 2006 - 2023                       |
 |                                                 |
 | Please cite the following publications in all   |
 | work arising from your use of CASTEP LR.        |
 |                                                 |
 | K. Refson, S. J. Clark and P. R. Tulip          |
 | Variational density functional perturbation     |
 | theory for dielectrics and lattice dynamics     |
 | Phys. Rev. B 73(15), 155114 (2006)              |
 +-------------------------------------------------+


 Atomic calculation performed for Al: 1s2 2s2 2p6 3s2 3p1

 Converged in 54 iterations to an ae energy of -6603.783 eV

   ============================================================                
   | Pseudopotential Report - Date of generation 13-05-2024   |                
   ------------------------------------------------------------                
   | Element: Al Ionic charge:  3.00 Level of theory: PBE     |                
   | Atomic Solver: Koelling-Harmon                           |                
   |                                                          |                
   |               Reference Electronic Structure             |                
   |         Orbital         Occupation         Energy        |                
   |            3s              2.000           -0.285        |                
   |            3p              1.000           -0.100        |                
   |                                                          |                
   |                 Pseudopotential Definition               |                
   |        Beta     l      e      Rc     scheme   norm       |                
   |          1      0   -0.285   2.192     qc      0         |                
   |          2      0    0.250   2.192     qc      0         |                
   |          3      1   -0.100   2.192     qc      0         |                
   |          4      1    0.250   2.192     qc      0         |                
   |          5      2    0.000   2.000     qc      0         |                
   |          6      2    0.250   2.000     qc      0         |                
   |         loc     3    0.000   2.192     pn      0         |                
   |                                                          |                
   | Augmentation charge Rinner = 1.398                       |                
   | Partial core correction Rc = 1.398                       |                
   ------------------------------------------------------------                
   | "3|2.2|2.2|1.4|4|5|5|30:31:32U2U2"                       |                
   ------------------------------------------------------------                
   |      Author: Chris J. Pickard, Cambridge University      |                
   ============================================================                

 Atomic calculation performed for Ti: 1s2 2s2 2p6 3s2 3p6 3d2 4s2

 Converged in 79 iterations to an ae energy of -23226.658 eV

   ============================================================                
   | Pseudopotential Report - Date of generation 13-05-2024   |                
   ------------------------------------------------------------                
   | Element: Ti Ionic charge: 12.00 Level of theory: PBE     |                
   | Atomic Solver: Koelling-Harmon                           |                
   |                                                          |                
   |               Reference Electronic Structure             |                
   |         Orbital         Occupation         Energy        |                
   |            3s              2.000           -2.302        |                
   |            3p              6.000           -1.428        |                
   |            4s              2.000           -0.164        |                
   |            3d              2.000           -0.157        |                
   |                                                          |                
   |                 Pseudopotential Definition               |                
   |        Beta     l      e      Rc     scheme   norm       |                
   |          1      0   -2.302   1.793     qc      0         |                
   |          2      0   -0.164   1.793     qc      0         |                
   |          3      0    0.250   1.793     qc      0         |                
   |          4      1   -1.428   1.793     qc      0         |                
   |          5      1    0.250   1.793     qc      0         |                
   |          6      2   -0.157   1.793     qc      0         |                
   |          7      2    0.250   1.793     qc      0         |                
   |         loc     3    0.000   1.793     pn      0         |                
   |                                                          |                
   | Augmentation charge Rinner = 1.263                       |                
   | Partial core correction Rc = 1.263                       |                
   ------------------------------------------------------------                
   | "3|1.8|9|10|11|30U:40:31:32(qc=5.5)"                     |                
   ------------------------------------------------------------                
   |      Author: Chris J. Pickard, Cambridge University      |                
   ============================================================                

 Pseudo atomic calculation performed for Al 3s2 3p1

 Converged in 22 iterations to a total energy of -107.1308 eV

 Pseudo atomic calculation performed for Ti 3s2 3p6 3d2 4s2

 Converged in 51 iterations to a total energy of -1587.0236 eV
 Calculation parallelised over 192 processes.
 Data is distributed by G-vector(6-way) and k-point(32-way)

 ************************************ Title ************************************
 

 ***************************** General Parameters ******************************
  
 output verbosity                               : normal  (1)
 write checkpoint data to                       : ti64_hcp_phonon_AlAl.check
 type of calculation                            : phonon calculation
 stress calculation                             : on
 density difference calculation                 : off
 electron localisation func (ELF) calculation   : off
 Hirshfeld analysis                             : off
 polarisation (Berry phase) analysis            : off
 molecular orbital projected DOS                : off
 deltaSCF calculation                           : off
 unlimited duration calculation
 timing information                             : on
 memory usage estimate                          : on
 write extra output files                       : on
 write final potential to formatted file        : off
 write final density to formatted file          : off
 write structure in CELL formatted file         : on
 write BibTeX reference list                    : on
 write OTFG pseudopotential files               : on
 write electrostatic potential file             : on
 write bands file                               : on
 checkpoint writing                             : both castep_bin and check files
  
 output         length unit                     : A
 output           mass unit                     : amu
 output           time unit                     : ps
 output         charge unit                     : e
 output           spin unit                     : hbar/2
 output         energy unit                     : eV
 output          force unit                     : eV/A
 output       velocity unit                     : A/ps
 output       pressure unit                     : GPa
 output     inv_length unit                     : 1/A
 output      frequency unit                     : THz
 output force constant unit                     : eV/A**2
 output         volume unit                     : A**3
 output   IR intensity unit                     : (D/A)**2/amu
 output         dipole unit                     : D
 output         efield unit                     : eV/A/e
 output        entropy unit                     : J/mol/K
 output    efield chi2 unit                     : pm/V
  
 wavefunctions paging                           : none
 random number generator seed                   :  200025838
 data distribution                              : k-point only
 optimization strategy                          : maximize speed(+++)

 *********************** Exchange-Correlation Parameters ***********************
  
 using functional                               : Perdew Burke Ernzerhof
 relativistic treatment                         : Koelling-Harmon
 DFT+D: Semi-empirical dispersion correction    : off

 ************************* Pseudopotential Parameters **************************
  
 pseudopotential representation                 : reciprocal space
 <beta|phi> representation                      : reciprocal space
 spin-orbit coupling                            : off

 **************************** Basis Set Parameters *****************************
  
 plane wave basis set cut-off                   :   800.0000   eV
 size of standard grid                          :     2.0000
 size of   fine   grid                          :     4.0000
 size of   fine   gmax                          :    57.9620   1/A
 largest prime factor in FFT                    :          5
 finite basis set correction                    : automatic
 number of sample energies                      :          3
           sample  spacing                      :     5.0000   eV

 **************************** Electronic Parameters ****************************
  
 number of  electrons                           :  78.00    
 net charge of system                           :  0.000    
 treating system as non-spin-polarized
 number of bands                                :         74

 ********************* Electronic Minimization Parameters **********************
  
 Method: Treating system as metallic with density mixing treatment of electrons,
         and number of  SD  steps               :          1
         and number of  CG  steps               :          4
  
 total energy / atom convergence tol.           : 0.1000E-08   eV
 eigen-energy convergence tolerance             : 0.1081E-09   eV
 max force / atom convergence tol.              : ignored
 convergence tolerance window                   :          3   cycles
 max. number of SCF cycles                      :        400
 number of fixed-spin iterations                :         10
 smearing scheme                                : Gaussian
 smearing width                                 : 0.5000E-01   eV
 Fermi energy convergence tolerance             : 0.2721E-13   eV
 periodic dipole correction                     : NONE

 ************************** Density Mixing Parameters **************************
  
 density-mixing scheme                          : Pulay
 max. length of mixing history                  :         20
 charge density mixing amplitude                : 0.8000    
 cut-off energy for mixing                      :  800.0       eV
 charge density mixing g-vector                 :  1.500       1/A

 *********************** Population Analysis Parameters ************************
  
 Population analysis with cutoff                :  3.000       A
 Population analysis output                     : summary and pdos components

 ****************************** Phonon Parameters ******************************
  
 phonon calculation method                      : finite displacement
 finite displacement amplitude                  : 0.1000E-01   A
 fine phonon calculation method                 : interpolation
 non-periodic force constant method             : Weighted cumulant sum
 force constant cutoff scale factor             :     1.0000
 LO/TO splitting term                           : included
 acoustic phonon sum rule                       : correct D(q) in recip-space
 Born effective charges                         : calculated
 Born charge sum rule                           : explicitly enforced
 Raman intensities                              : not calculated
 phonon extra output                            : real-space force constants
 phonon k-points                                : use reduced set
 phonon DOS                                     : not calculated
 no timed backups
 band convergence tolerance                     : 0.1000E-08   eV

 ******************************* Developer Code ********************************
  
 PARALLEL: kpoints=32 : ENDPARALLEL
 no_improve_wvfn

 *******************************************************************************
  

                           -------------------------------
                                      Unit Cell
                           -------------------------------
        Real Lattice(A)                      Reciprocal Lattice(1/A)
     2.9127010    -5.0449461     0.0000000        1.078583986  -0.622720754   0.000000000
     2.9127010     5.0449461     0.0000000        1.078583986   0.622720754   0.000000000
     0.0000000     0.0000000     4.5960830        0.000000000   0.000000000   1.367073943

                       Lattice parameters(A)       Cell Angles
                    a =      5.825402          alpha =   90.000000
                    b =      5.825402          beta  =   90.000000
                    c =      4.596083          gamma =  120.000000

                       Current cell volume =           135.073544       A**3
                                   density =             2.525773   AMU/A**3
                                           =             4.194144     g/cm^3

                           -------------------------------
                                     Cell Contents
                           -------------------------------
                         Total number of ions in cell =    8
                      Total number of species in cell =    2
                        Max number of any one species =    6

            xxxxxxxxxxxxxxxxxxxxxxxxxxxxxxxxxxxxxxxxxxxxxxxxxxxxxxxxxxxx
            x  Element    Atom        Fractional coordinates of atoms  x
            x            Number           u          v          w      x
            x----------------------------------------------------------x
            x  Al           1         0.167378   0.332622   0.250000   x 
            x  Al           2         0.332622   0.167378   0.750000   x 
            x  Ti           1         0.161036   0.830503   0.250000   x 
            x  Ti           2         0.338964   0.669497   0.750000   x 
            x  Ti           3         0.669497   0.338964   0.250000   x 
            x  Ti           4         0.830503   0.161036   0.750000   x 
            x  Ti           5         0.668002   0.831998   0.250000   x 
            x  Ti           6         0.831998   0.668002   0.750000   x 
            xxxxxxxxxxxxxxxxxxxxxxxxxxxxxxxxxxxxxxxxxxxxxxxxxxxxxxxxxxxx


                         No user defined ionic velocities

                           -------------------------------
                                   Details of Species
                           -------------------------------

                               Mass of species in AMU
                                    Al   26.9815400
                                    Ti   47.8670000

                          Electric Quadrupole Moment (Barn)
                                    Al    0.1466000 Isotope 27
                                    Ti    0.3020000 Isotope 47

                          Files used for pseudopotentials:
                                    Al 3|2.2|2.2|1.4|4|5|5|30:31:32U2U2
                                    Ti 3|1.8|9|10|11|30U:40:31:32(qc=5.5)

                           -------------------------------
                              k-Points For BZ Sampling
                           -------------------------------
                       MP grid size for SCF calculation is 10 10 11
                            with an offset of   0.000  0.000  0.000
                       Number of kpoints used =           180

                           -------------------------------
                               Symmetry and Constraints
                           -------------------------------

                      Maximum deviation from symmetry = 0.470004E-15     ANG

                      Number of symmetry operations   =           8
                      Number of ionic constraints     =           3
                      Point group of crystal =     8: D2h, mmm, 2/m 2/m 2/m
                      Space group of crystal =    63: Cmcm, -C 2c 2

             Set iprint > 1 for details on symmetry rotations/translations

                         Centre of mass is constrained
             Set iprint > 1 for details of linear ionic constraints

                         Number of cell constraints= 3
                         Cell constraints are:  1 1 3 0 0 6

                         External pressure/stress (GPa)
                          0.00000   0.00000   0.00000
                                    0.00000   0.00000
                                              0.00000
 
+---------------- MEMORY AND SCRATCH DISK ESTIMATES PER PROCESS --------------+
|                                                     Memory          Disk    |
| Baseline code, static data and system overhead      591.0 MB         0.0 MB |
| BLAS internal memory storage                          0.0 MB         0.0 MB |
| Model and support data                              709.3 MB         0.0 MB |
| Electronic energy minimisation requirements          46.7 MB         0.0 MB |
| Force calculation requirements                       26.9 MB         0.0 MB |
| Stress calculation requirements                      29.6 MB         0.0 MB |
|                                               ----------------------------- |
| Approx. total storage required per process         1346.9 MB         0.0 MB |
|                                                                             |
| Requirements will fluctuate during execution and may exceed these estimates |
+-----------------------------------------------------------------------------+
Calculating finite basis set correction with  3 cut-off energies.
Calculating total energy with cut-off of  790.000 eV.
------------------------------------------------------------------------ <-- SCF
SCF loop      Energy           Fermi           Energy gain       Timer   <-- SCF
                               energy          per atom          (sec)   <-- SCF
------------------------------------------------------------------------ <-- SCF
Initial  -8.60578993E+003  0.00000000E+000                        16.26  <-- SCF
      1  -9.48995912E+003  1.05602371E+001   1.10521148E+002      19.37  <-- SCF
      2  -9.77448858E+003  8.49886799E+000   3.55661835E+001      21.58  <-- SCF
      3  -9.78705145E+003  8.27886064E+000   1.57035775E+000      23.70  <-- SCF
      4  -9.78776167E+003  7.59110083E+000   8.87781073E-002      27.76  <-- SCF
      5  -9.78687935E+003  7.84913102E+000  -1.10289860E-001      31.84  <-- SCF
      6  -9.78604968E+003  8.04412788E+000  -1.03708814E-001      35.85  <-- SCF
      7  -9.78598399E+003  7.95051696E+000  -8.21152538E-003      39.85  <-- SCF
      8  -9.78597880E+003  7.93306121E+000  -6.48145621E-004      44.02  <-- SCF
      9  -9.78597879E+003  7.93469534E+000  -1.36563399E-006      48.13  <-- SCF
     10  -9.78597879E+003  7.93465434E+000  -7.58641620E-009      52.36  <-- SCF
     11  -9.78597879E+003  7.93455346E+000  -3.30007268E-009      56.48  <-- SCF
     12  -9.78597879E+003  7.93457484E+000  -6.09241212E-010      59.81  <-- SCF
     13  -9.78597879E+003  7.93456789E+000   6.14848319E-011      63.02  <-- SCF
------------------------------------------------------------------------ <-- SCF
 
Final energy, E             =  -9785.967947719     eV
Final free energy (E-TS)    =  -9785.978792870     eV
(energies not corrected for finite basis set)
 
NB est. 0K energy (E-0.5TS)      =  -9785.973370294     eV
 
Calculating total energy with cut-off of  795.000 eV.
------------------------------------------------------------------------ <-- SCF
SCF loop      Energy           Fermi           Energy gain       Timer   <-- SCF
                               energy          per atom          (sec)   <-- SCF
------------------------------------------------------------------------ <-- SCF
Initial  -9.78596795E+003  0.00000000E+000                        67.58  <-- SCF
      1  -9.78597892E+003  7.93457611E+000   1.37100190E-003      69.89  <-- SCF
      2  -9.78597892E+003  7.93457611E+000   2.29968739E-009      73.66  <-- SCF
      3  -9.78597892E+003  7.93457956E+000   6.21263623E-008      77.71  <-- SCF
      4  -9.78597896E+003  7.93441809E+000   5.25467896E-006      81.74  <-- SCF
      5  -9.78597892E+003  7.93461110E+000  -5.16272936E-006      85.78  <-- SCF
      6  -9.78597892E+003  7.93453760E+000  -1.52720395E-007      89.80  <-- SCF
      7  -9.78597892E+003  7.93461513E+000   1.14694347E-009      93.65  <-- SCF
      8  -9.78597892E+003  7.93456593E+000  -1.38630895E-009      97.08  <-- SCF
      9  -9.78597892E+003  7.93456708E+000   1.70146705E-011     100.24  <-- SCF
     10  -9.78597892E+003  7.93456802E+000   5.80045584E-013     103.39  <-- SCF
------------------------------------------------------------------------ <-- SCF
 
Final energy, E             =  -9785.968070736     eV
Final free energy (E-TS)    =  -9785.978915760     eV
(energies not corrected for finite basis set)
 
NB est. 0K energy (E-0.5TS)      =  -9785.973493248     eV
 
Calculating total energy with cut-off of  800.000 eV.
------------------------------------------------------------------------ <-- SCF
SCF loop      Energy           Fermi           Energy gain       Timer   <-- SCF
                               energy          per atom          (sec)   <-- SCF
------------------------------------------------------------------------ <-- SCF
Initial  -9.78596807E+003  0.00000000E+000                       107.92  <-- SCF
      1  -9.78597903E+003  7.93456321E+000   1.36991691E-003     110.22  <-- SCF
      2  -9.78597903E+003  7.93456321E+000   2.01894533E-009     113.95  <-- SCF
      3  -9.78597903E+003  7.93456808E+000   4.99438583E-009     117.27  <-- SCF
      4  -9.78597903E+003  7.93458603E+000   1.99234057E-007     121.33  <-- SCF
      5  -9.78597905E+003  7.93446196E+000   1.92835980E-006     125.36  <-- SCF
      6  -9.78597903E+003  7.93458522E+000  -2.13577695E-006     129.34  <-- SCF
      7  -9.78597903E+003  7.93452935E+000   6.80238791E-009     133.32  <-- SCF
      8  -9.78597903E+003  7.93456815E+000  -7.66433565E-010     136.60  <-- SCF
      9  -9.78597903E+003  7.93456544E+000   2.26217778E-011     139.75  <-- SCF
------------------------------------------------------------------------ <-- SCF
 
Final energy, E             =  -9785.968185126     eV
Final free energy (E-TS)    =  -9785.979030110     eV
(energies not corrected for finite basis set)
 
NB est. 0K energy (E-0.5TS)      =  -9785.973607618     eV
 
 For future reference: finite basis dEtot/dlog(Ecut) =      -0.018826eV
 Total energy corrected for finite basis set =   -9785.979030 eV
 ??????????????????????????????????????????????????????????????????????????????? 
     WARNING: Calculation of Born effective charges and IR intensities is not    
              implemented for ultrasoft pseudopotentials.                        
              Parameter CALCULATE_BORN_CHARGES changed to .FALSE.                
 ??????????????????????????????????????????????????????????????????????????????? 
 ??????????????????????????????????????????????????????????????????????????????? 
     WARNING: Calculation of LO/TO splitting is not implemented for ultrasoft    
              pseudopotentials.                                                  
              Parameter PHONON_CALC_LO_TO_SPLITTING changed to .FALSE.           
 ??????????????????????????????????????????????????????????????????????????????? 

 Phonon supercell    1 (of 5)      [  1  0  0;  0  1  0;  0  0  2]:     144.45s
 -------------------------------------------------------------------------------
  Parallel strategy changed for perturbation using 90 k-points
  Data is distributed by G-vector(6-way) and k-point(32-way) and band(1-way)
  +---------------- MEMORY AND SCRATCH DISK ESTIMATES PER PROCESS --------------+
  |                                                     Memory          Disk    |
  | Baseline code, static data and system overhead      591.0 MB         0.0 MB |
  | BLAS internal memory storage                          0.0 MB         0.0 MB |
  | Model and support data                              709.3 MB         0.0 MB |
  | Finite displacement phonon requirements             121.8 MB         0.0 MB |
  |                                               ----------------------------- |
  | Approx. total storage required per process         1422.1 MB         0.0 MB |
  |                                                                             |
  | Requirements will fluctuate during execution and may exceed these estimates |
  +-----------------------------------------------------------------------------+
 Perturbation    1 (of    9): Al    1 X at q=( 0.000, 0.000, 0.000):    286.98s
  Parallel strategy changed for perturbation using 150 k-points
  Data is distributed by G-vector(6-way) and k-point(32-way) and band(1-way)
  +---------------- MEMORY AND SCRATCH DISK ESTIMATES PER PROCESS --------------+
  |                                                     Memory          Disk    |
  | Baseline code, static data and system overhead      591.0 MB         0.0 MB |
  | BLAS internal memory storage                          0.0 MB         0.0 MB |
  | Model and support data                              709.3 MB         0.0 MB |
  | Finite displacement phonon requirements             154.5 MB         0.0 MB |
  |                                               ----------------------------- |
  | Approx. total storage required per process         1454.8 MB         0.0 MB |
  |                                                                             |
  | Requirements will fluctuate during execution and may exceed these estimates |
  +-----------------------------------------------------------------------------+
 Perturbation    2 (of    9): Al    1 Y at q=( 0.000, 0.000, 0.000):    586.55s
  Parallel strategy changed for perturbation using 90 k-points
  Data is distributed by G-vector(32-way) and k-point(6-way) and band(1-way)
 Perturbation    3 (of    9): Al    1 Z at q=( 0.000, 0.000, 0.000):    811.95s
  Parallel strategy changed for perturbation using 165 k-points
  Data is distributed by G-vector(6-way) and k-point(32-way) and band(1-way)
  +---------------- MEMORY AND SCRATCH DISK ESTIMATES PER PROCESS --------------+
  |                                                     Memory          Disk    |
  | Baseline code, static data and system overhead      591.0 MB         0.0 MB |
  | BLAS internal memory storage                          0.0 MB         0.0 MB |
  | Model and support data                              709.3 MB         0.0 MB |
  | Finite displacement phonon requirements             170.7 MB         0.0 MB |
  |                                               ----------------------------- |
  | Approx. total storage required per process         1471.0 MB         0.0 MB |
  |                                                                             |
  | Requirements will fluctuate during execution and may exceed these estimates |
  +-----------------------------------------------------------------------------+
 Perturbation    4 (of    9): Ti    1 X at q=( 0.000, 0.000, 0.000):   1249.45s
  Parallel strategy changed for perturbation using 150 k-points
  Data is distributed by G-vector(6-way) and k-point(32-way) and band(1-way)
 Perturbation    5 (of    9): Ti    1 Y at q=( 0.000, 0.000, 0.000):   1631.01s
 Perturbation    6 (of    9): Ti    1 Z at q=( 0.000, 0.000, 0.000):   1990.76s
  Parallel strategy changed for perturbation using 300 k-points
  Data is distributed by G-vector(6-way) and k-point(32-way) and band(1-way)
  +---------------- MEMORY AND SCRATCH DISK ESTIMATES PER PROCESS --------------+
  |                                                     Memory          Disk    |
  | Baseline code, static data and system overhead      591.0 MB         0.0 MB |
  | BLAS internal memory storage                          0.0 MB         0.0 MB |
  | Model and support data                              709.3 MB         0.0 MB |
  | Finite displacement phonon requirements             210.6 MB         0.0 MB |
  |                                               ----------------------------- |
  | Approx. total storage required per process         1510.8 MB         0.0 MB |
  |                                                                             |
  | Requirements will fluctuate during execution and may exceed these estimates |
  +-----------------------------------------------------------------------------+
 Perturbation    7 (of    9): Ti    5 X at q=( 0.000, 0.000, 0.000):   2572.79s
  Parallel strategy changed for perturbation using 150 k-points
  Data is distributed by G-vector(6-way) and k-point(32-way) and band(1-way)
 Perturbation    8 (of    9): Ti    5 Y at q=( 0.000, 0.000, 0.000):   2902.00s
  Parallel strategy changed for perturbation using 90 k-points
  Data is distributed by G-vector(32-way) and k-point(6-way) and band(1-way)
 Perturbation    9 (of    9): Ti    5 Z at q=( 0.000, 0.000, 0.000):   3135.96s
  Parallel strategy changed for perturbation using 165 k-points
  Data is distributed by G-vector(6-way) and k-point(32-way) and band(1-way)

 Phonon supercell    2 (of 5)      [ -1  0  0;  0  1  1;  0  1 -1]:    3579.93s
 -------------------------------------------------------------------------------
  Parallel strategy changed for perturbation using 180 k-points
  Data is distributed by G-vector(6-way) and k-point(32-way) and band(1-way)

Writing analysis data to ti64_hcp_phonon_AlAl.castep_bin

Writing model to ti64_hcp_phonon_AlAl.check
 Perturbation    1 (of   12): Al    1 X at q=( 0.000, 0.000, 0.000):   3851.10s
  Parallel strategy changed for perturbation using 180 k-points
  Data is distributed by G-vector(16-way) and k-point(12-way) and band(1-way)
 Perturbation    2 (of   12): Al    1 Y at q=( 0.000, 0.000, 0.000):   4150.67s
 Perturbation    3 (of   12): Al    1 Z at q=( 0.000, 0.000, 0.000):   4431.60s
  Parallel strategy changed for perturbation using 320 k-points
  Data is distributed by G-vector(6-way) and k-point(32-way) and band(1-way)
  +---------------- MEMORY AND SCRATCH DISK ESTIMATES PER PROCESS --------------+
  |                                                     Memory          Disk    |
  | Baseline code, static data and system overhead      591.0 MB         0.0 MB |
  | BLAS internal memory storage                          0.0 MB         0.0 MB |
  | Model and support data                              709.3 MB         0.0 MB |
  | Finite displacement phonon requirements             212.2 MB         0.0 MB |
  |                                               ----------------------------- |
  | Approx. total storage required per process         1512.5 MB         0.0 MB |
  |                                                                             |
  | Requirements will fluctuate during execution and may exceed these estimates |
  +-----------------------------------------------------------------------------+
 Perturbation    4 (of   12): Ti    1 X at q=( 0.000, 0.000, 0.000):   4924.03s
  Parallel strategy changed for perturbation using 180 k-points
  Data is distributed by G-vector(16-way) and k-point(12-way) and band(1-way)
 Perturbation    5 (of   12): Ti    1 Y at q=( 0.000, 0.000, 0.000):   5250.86s
 Perturbation    6 (of   12): Ti    1 Z at q=( 0.000, 0.000, 0.000):   5571.32s
  Parallel strategy changed for perturbation using 320 k-points
  Data is distributed by G-vector(6-way) and k-point(32-way) and band(1-way)
 Perturbation    7 (of   12): Ti    3 X at q=( 0.000, 0.000, 0.000):   6193.79s
  Parallel strategy changed for perturbation using 180 k-points
  Data is distributed by G-vector(16-way) and k-point(12-way) and band(1-way)
 Perturbation    8 (of   12): Ti    3 Y at q=( 0.000, 0.000, 0.000):   6519.51s
 Perturbation    9 (of   12): Ti    3 Z at q=( 0.000, 0.000, 0.000):   6840.61s
  Parallel strategy changed for perturbation using 320 k-points
  Data is distributed by G-vector(6-way) and k-point(32-way) and band(1-way)
 Perturbation   10 (of   12): Ti    5 X at q=( 0.000, 0.000, 0.000):   7460.23s
  Parallel strategy changed for perturbation using 180 k-points
  Data is distributed by G-vector(16-way) and k-point(12-way) and band(1-way)
 Perturbation   11 (of   12): Ti    5 Y at q=( 0.000, 0.000, 0.000):   7760.82s
 Perturbation   12 (of   12): Ti    5 Z at q=( 0.000, 0.000, 0.000):   8081.95s
  Parallel strategy changed for perturbation using 320 k-points
  Data is distributed by G-vector(6-way) and k-point(32-way) and band(1-way)

 Phonon supercell    3 (of 5)      [  0  0 -1;  0 -1  0; -2 -1  0]:    8661.45s
 -------------------------------------------------------------------------------
  Parallel strategy changed for perturbation using 138 k-points
  Data is distributed by G-vector(6-way) and k-point(32-way) and band(1-way)

Writing analysis data to ti64_hcp_phonon_AlAl.castep_bin

Writing model to ti64_hcp_phonon_AlAl.check
 Perturbation    1 (of   12): Al    1 X at q=( 0.000, 0.000, 0.000):   8872.12s
  Parallel strategy changed for perturbation using 138 k-points
  Data is distributed by G-vector(32-way) and k-point(6-way) and band(1-way)
 Perturbation    2 (of   12): Al    1 Y at q=( 0.000, 0.000, 0.000):   9161.29s
 Perturbation    3 (of   12): Al    1 Z at q=( 0.000, 0.000, 0.000):   9454.76s
  Parallel strategy changed for perturbation using 248 k-points
  Data is distributed by G-vector(6-way) and k-point(32-way) and band(1-way)
 Perturbation    4 (of   12): Ti    1 X at q=( 0.000, 0.000, 0.000):   9804.66s
  Parallel strategy changed for perturbation using 138 k-points
  Data is distributed by G-vector(32-way) and k-point(6-way) and band(1-way)
 Perturbation    5 (of   12): Ti    1 Y at q=( 0.000, 0.000, 0.000):  10130.81s
 Perturbation    6 (of   12): Ti    1 Z at q=( 0.000, 0.000, 0.000):  10444.27s
  Parallel strategy changed for perturbation using 248 k-points
  Data is distributed by G-vector(6-way) and k-point(32-way) and band(1-way)
 Perturbation    7 (of   12): Ti    3 X at q=( 0.000, 0.000, 0.000):  10922.11s
  Parallel strategy changed for perturbation using 138 k-points
  Data is distributed by G-vector(32-way) and k-point(6-way) and band(1-way)
 Perturbation    8 (of   12): Ti    3 Y at q=( 0.000, 0.000, 0.000):  11248.04s
 Perturbation    9 (of   12): Ti    3 Z at q=( 0.000, 0.000, 0.000):  11561.02s
  Parallel strategy changed for perturbation using 248 k-points
  Data is distributed by G-vector(6-way) and k-point(32-way) and band(1-way)
 Perturbation   10 (of   12): Ti    5 X at q=( 0.000, 0.000, 0.000):  12037.65s
  Parallel strategy changed for perturbation using 138 k-points
  Data is distributed by G-vector(32-way) and k-point(6-way) and band(1-way)
 Perturbation   11 (of   12): Ti    5 Y at q=( 0.000, 0.000, 0.000):  12329.36s
 Perturbation   12 (of   12): Ti    5 Z at q=( 0.000, 0.000, 0.000):  12638.53s
  Parallel strategy changed for perturbation using 248 k-points
  Data is distributed by G-vector(6-way) and k-point(32-way) and band(1-way)

 Phonon supercell    4 (of 5)      [  0  0  1;  1  1  0; -1  1  0]:   13096.79s
 -------------------------------------------------------------------------------
  Parallel strategy changed for perturbation using 90 k-points
  Data is distributed by G-vector(6-way) and k-point(32-way) and band(1-way)

Writing analysis data to ti64_hcp_phonon_AlAl.castep_bin

Writing model to ti64_hcp_phonon_AlAl.check
 Perturbation    1 (of    9): Al    1 X at q=( 0.000, 0.000, 0.000):  13230.43s
  Parallel strategy changed for perturbation using 138 k-points
  Data is distributed by G-vector(6-way) and k-point(32-way) and band(1-way)
 Perturbation    2 (of    9): Al    1 Y at q=( 0.000, 0.000, 0.000):  13554.01s
  Parallel strategy changed for perturbation using 90 k-points
  Data is distributed by G-vector(32-way) and k-point(6-way) and band(1-way)
 Perturbation    3 (of    9): Al    1 Z at q=( 0.000, 0.000, 0.000):  13805.56s
  Parallel strategy changed for perturbation using 140 k-points
  Data is distributed by G-vector(6-way) and k-point(32-way) and band(1-way)
 Perturbation    4 (of    9): Ti    1 X at q=( 0.000, 0.000, 0.000):  14185.08s
  Parallel strategy changed for perturbation using 138 k-points
  Data is distributed by G-vector(6-way) and k-point(32-way) and band(1-way)
 Perturbation    5 (of    9): Ti    1 Y at q=( 0.000, 0.000, 0.000):  14539.62s
 Perturbation    6 (of    9): Ti    1 Z at q=( 0.000, 0.000, 0.000):  14907.90s
  Parallel strategy changed for perturbation using 248 k-points
  Data is distributed by G-vector(6-way) and k-point(32-way) and band(1-way)
 Perturbation    7 (of    9): Ti    5 X at q=( 0.000, 0.000, 0.000):  15387.97s
  Parallel strategy changed for perturbation using 138 k-points
  Data is distributed by G-vector(6-way) and k-point(32-way) and band(1-way)
 Perturbation    8 (of    9): Ti    5 Y at q=( 0.000, 0.000, 0.000):  15738.09s
  Parallel strategy changed for perturbation using 90 k-points
  Data is distributed by G-vector(32-way) and k-point(6-way) and band(1-way)
 Perturbation    9 (of    9): Ti    5 Z at q=( 0.000, 0.000, 0.000):  15975.80s
  Parallel strategy changed for perturbation using 140 k-points
  Data is distributed by G-vector(6-way) and k-point(32-way) and band(1-way)

 Phonon supercell    5 (of 5)      [  1  1  0;  0  1 -1;  0  1  1]:   16372.98s
 -------------------------------------------------------------------------------
  Parallel strategy changed for perturbation using 164 k-points
  Data is distributed by G-vector(6-way) and k-point(32-way) and band(1-way)

Writing analysis data to ti64_hcp_phonon_AlAl.castep_bin

Writing model to ti64_hcp_phonon_AlAl.check
 Perturbation    1 (of    9): Al    1 X at q=( 0.000, 0.000, 0.000):  16623.00s
  Parallel strategy changed for perturbation using 324 k-points
  Data is distributed by G-vector(6-way) and k-point(32-way) and band(1-way)
  +---------------- MEMORY AND SCRATCH DISK ESTIMATES PER PROCESS --------------+
  |                                                     Memory          Disk    |
  | Baseline code, static data and system overhead      591.0 MB         0.0 MB |
  | BLAS internal memory storage                          0.0 MB         0.0 MB |
  | Model and support data                              709.3 MB         0.0 MB |
  | Finite displacement phonon requirements             256.8 MB         0.0 MB |
  |                                               ----------------------------- |
  | Approx. total storage required per process         1557.1 MB         0.0 MB |
  |                                                                             |
  | Requirements will fluctuate during execution and may exceed these estimates |
  +-----------------------------------------------------------------------------+
 Perturbation    2 (of    9): Al    1 Y at q=( 0.000, 0.000, 0.000):  17300.97s
  Parallel strategy changed for perturbation using 164 k-points
  Data is distributed by G-vector(48-way) and k-point(4-way) and band(1-way)
 Perturbation    3 (of    9): Al    1 Z at q=( 0.000, 0.000, 0.000):  17779.37s
  Parallel strategy changed for perturbation using 288 k-points
  Data is distributed by G-vector(6-way) and k-point(32-way) and band(1-way)
 Perturbation    4 (of    9): Ti    1 X at q=( 0.000, 0.000, 0.000):  18331.14s
  Parallel strategy changed for perturbation using 324 k-points
  Data is distributed by G-vector(6-way) and k-point(32-way) and band(1-way)
 Perturbation    5 (of    9): Ti    1 Y at q=( 0.000, 0.000, 0.000):  19071.58s
 Perturbation    6 (of    9): Ti    1 Z at q=( 0.000, 0.000, 0.000):  19796.60s
  Parallel strategy changed for perturbation using 576 k-points
  Data is distributed by G-vector(6-way) and k-point(32-way) and band(1-way)
  +---------------- MEMORY AND SCRATCH DISK ESTIMATES PER PROCESS --------------+
  |                                                     Memory          Disk    |
  | Baseline code, static data and system overhead      591.0 MB         0.0 MB |
  | BLAS internal memory storage                          0.0 MB         0.0 MB |
  | Model and support data                              709.3 MB         0.0 MB |
  | Finite displacement phonon requirements             342.7 MB         0.0 MB |
  |                                               ----------------------------- |
  | Approx. total storage required per process         1643.0 MB         0.0 MB |
  |                                                                             |
  | Requirements will fluctuate during execution and may exceed these estimates |
  +-----------------------------------------------------------------------------+
 Perturbation    7 (of    9): Ti    5 X at q=( 0.000, 0.000, 0.000):  20914.36s
  Parallel strategy changed for perturbation using 324 k-points
  Data is distributed by G-vector(6-way) and k-point(32-way) and band(1-way)
 Perturbation    8 (of    9): Ti    5 Y at q=( 0.000, 0.000, 0.000):  21575.65s
  Parallel strategy changed for perturbation using 164 k-points
  Data is distributed by G-vector(48-way) and k-point(4-way) and band(1-way)
 Perturbation    9 (of    9): Ti    5 Z at q=( 0.000, 0.000, 0.000):  22042.13s
  Parallel strategy changed for perturbation using 288 k-points
  Data is distributed by G-vector(6-way) and k-point(32-way) and band(1-way)
 %%%%%%%%%%%%%%%%%%%%%%%%%%%%%%%%%%%%%%%%%%%%%%%%%%%%%%%%%%%%%%%%%%%%%%%%%%%%%%%%%%%%%%%%%%%%%%%%%%%%%%%%%%%%%%%%%%%
            Force Constant matrix
 Ion XYZ  L          part  (eV/A**2)
 Supercell   1 at (0,0,0)        0.000 A                             
   1   1          6.748452         -0.000000          0.000000          0.205002         -0.000000         -0.000000
                 -0.465510         -0.262515          0.000000         -0.509264         -0.303914         -0.880781
                 -0.555164          0.784498          0.000000          0.012106          0.005922         -0.041896
                 -1.519722         -0.281614          0.000000          0.001322          0.035990          0.097313
   1   2         -0.000000          5.626345          0.000000         -0.000000         -0.466234          0.486257
                 -0.861319         -1.052406          0.000000         -0.321978         -0.029667         -0.449670
                  0.243618         -0.949014          0.000000          0.015222         -0.032865          0.044560
                  0.282826         -0.089872          0.000000          0.026293          0.007649         -0.036291
   1   3          0.000000          0.000000          5.761754         -0.000000          0.486257         -0.674499
                  0.000000          0.000000         -0.088611         -0.666419         -0.441173         -0.941350
                  0.000000          0.000000         -0.021007         -0.010074          0.015833         -0.007284
                  0.000000          0.000000         -0.010323         -0.041626          0.010802          0.022817
   2   1          0.205002         -0.000000         -0.000000          6.748452         -0.000000          0.000000
                  0.012106         -0.005922          0.041896         -0.555164         -0.784498          0.000000
                 -0.509264          0.303914          0.880781         -0.465510          0.262515          0.000000
                  0.001322         -0.035990         -0.097313         -1.519722          0.281614          0.000000
   2   2         -0.000000         -0.466234          0.486257         -0.000000          5.626345          0.000000
                 -0.015222         -0.032865          0.044560         -0.243618         -0.949014          0.000000
                  0.321978         -0.029667         -0.449670          0.861319         -1.052406          0.000000
                 -0.026293          0.007649         -0.036291         -0.282826         -0.089872          0.000000
   2   3         -0.000000          0.486257         -0.674499          0.000000          0.000000          5.761754
                  0.010074          0.015833         -0.007284          0.000000          0.000000         -0.021007
                  0.666419         -0.441173         -0.941350          0.000000          0.000000         -0.088611
                  0.041626          0.010802          0.022817          0.000000          0.000000         -0.010323
   3   1         -0.465510         -0.861319          0.000000          0.012106         -0.015222          0.010074
                  6.903529          0.568322          0.000000         -0.206851          0.035375         -0.053247
                  0.018833         -0.112343          0.000000         -0.014218         -0.005186         -0.006760
                 -0.100899          0.949827          0.000000         -0.028760          0.031471         -0.035172
   3   2         -0.262515         -1.052406          0.000000         -0.005922         -0.032865          0.015833
                  0.568322          5.957686          0.000000          0.035375         -0.612968          0.975347
                  0.033556         -0.234789          0.000000          0.005186          0.015966         -0.014418
                 -0.479128         -0.653813          0.000000          0.001870         -0.064309          0.143990
   3   3          0.000000          0.000000         -0.088611          0.041896          0.044560         -0.007284
                  0.000000          0.000000          6.696563         -0.053247          0.975347         -0.223195
                  0.000000          0.000000         -0.059459          0.006760         -0.014418         -0.023862
                  0.000000          0.000000         -0.312305         -0.060275          0.055187          0.041328
   4   1         -0.509264         -0.321978         -0.666419         -0.555164         -0.243618          0.000000
                 -0.206851          0.035375         -0.053247          6.903529          0.568322          0.000000
                  0.063315          0.079623          0.053224          0.018833         -0.033556          0.000000
                 -0.664071          0.290678          0.843128         -0.616722          0.201724          0.000000
   4   2         -0.303914         -0.029667         -0.441173         -0.784498         -0.949014          0.000000
                  0.035375         -0.612968          0.975347          0.568322          5.957686          0.000000
                 -0.079623          0.436627          0.202007          0.112343         -0.234789          0.000000
                  0.365967         -0.168136         -0.461932          0.642405         -0.788694          0.000000
   4   3         -0.880781         -0.449670         -0.941350          0.000000          0.000000         -0.021007
                 -0.053247          0.975347         -0.223195          0.000000          0.000000          6.696563
                 -0.053224          0.202007          0.166877          0.000000          0.000000         -0.059459
                  0.817605         -0.361648         -0.549917          0.000000          0.000000         -0.274190
   5   1         -0.555164          0.243618          0.000000         -0.509264          0.321978          0.666419
                  0.018833          0.033556          0.000000          0.063315         -0.079623         -0.053224
                  6.903529         -0.568322          0.000000         -0.206851         -0.035375          0.053247
                 -0.616722         -0.201724          0.000000         -0.664071         -0.290678         -0.843128
   5   2          0.784498         -0.949014          0.000000          0.303914         -0.029667         -0.441173
                 -0.112343         -0.234789          0.000000          0.079623          0.436627          0.202007
                 -0.568322          5.957686          0.000000         -0.035375         -0.612968          0.975347
                 -0.642405         -0.788694          0.000000         -0.365967         -0.168136         -0.461932
   5   3          0.000000          0.000000         -0.021007          0.880781         -0.449670         -0.941350
                  0.000000          0.000000         -0.059459          0.053224          0.202007          0.166877
                  0.000000          0.000000          6.696563          0.053247          0.975347         -0.223195
                  0.000000          0.000000         -0.274190         -0.817605         -0.361648         -0.549917
   6   1          0.012106          0.015222         -0.010074         -0.465510          0.861319          0.000000
                 -0.014218          0.005186          0.006760          0.018833          0.112343          0.000000
                 -0.206851         -0.035375          0.053247          6.903529         -0.568322          0.000000
                 -0.028760         -0.031471          0.035172         -0.100899         -0.949827          0.000000
   6   2          0.005922         -0.032865          0.015833          0.262515         -1.052406          0.000000
                 -0.005186          0.015966         -0.014418         -0.033556         -0.234789          0.000000
                 -0.035375         -0.612968          0.975347         -0.568322          5.957686          0.000000
                 -0.001870         -0.064309          0.143990          0.479128         -0.653813          0.000000
   6   3         -0.041896          0.044560         -0.007284          0.000000          0.000000         -0.088611
                 -0.006760         -0.014418         -0.023862          0.000000          0.000000         -0.059459
                  0.053247          0.975347         -0.223195          0.000000          0.000000          6.696563
                  0.060275          0.055187          0.041328          0.000000          0.000000         -0.312305
   7   1         -1.519722          0.282826          0.000000          0.001322         -0.026293          0.041626
                 -0.100899         -0.479128          0.000000         -0.664071          0.365967          0.817605
                 -0.616722         -0.642405          0.000000         -0.028760         -0.001870          0.060275
                  8.283953         -0.000000          0.000000          0.134419         -0.000000         -0.000000
   7   2         -0.281614         -0.089872          0.000000         -0.035990          0.007649          0.010802
                  0.949827         -0.653813          0.000000          0.290678         -0.168136         -0.361648
                 -0.201724         -0.788694          0.000000         -0.031471         -0.064309          0.055187
                 -0.000000          6.767911          0.000000         -0.000000         -0.631223          0.759251
   7   3          0.000000          0.000000         -0.010323         -0.097313         -0.036291          0.022817
                  0.000000          0.000000         -0.312305          0.843128         -0.461932         -0.549917
                  0.000000          0.000000         -0.274190          0.035172          0.143990          0.041328
                  0.000000          0.000000          6.388898         -0.000000          0.759251         -0.384937
   8   1          0.001322          0.026293         -0.041626         -1.519722         -0.282826          0.000000
                 -0.028760          0.001870         -0.060275         -0.616722          0.642405          0.000000
                 -0.664071         -0.365967         -0.817605         -0.100899          0.479128          0.000000
                  0.134419         -0.000000         -0.000000          8.283953         -0.000000          0.000000
   8   2          0.035990          0.007649          0.010802          0.281614         -0.089872          0.000000
                  0.031471         -0.064309          0.055187          0.201724         -0.788694          0.000000
                 -0.290678         -0.168136         -0.361648         -0.949827         -0.653813          0.000000
                 -0.000000         -0.631223          0.759251         -0.000000          6.767911          0.000000
   8   3          0.097313         -0.036291          0.022817          0.000000          0.000000         -0.010323
                 -0.035172          0.143990          0.041328          0.000000          0.000000         -0.274190
                 -0.843128         -0.461932         -0.549917          0.000000          0.000000         -0.312305
                 -0.000000          0.759251         -0.384937          0.000000          0.000000          6.388898

 Supercell   2 at (1,0,0)        5.825 A                             
   1   1          0.014473         -0.009103          0.000000          0.007338          0.003698         -0.003458
                 -0.070287          0.086419          0.000000          0.028220         -0.039468         -0.007767
                 -0.465510          0.262515          0.000000         -0.509264          0.303914          0.880781
                  0.070113         -0.000000          0.000000          0.026979         -0.000000         -0.000000
   1   2         -0.009103         -0.019876          0.000000          0.003698         -0.011261         -0.016314
                  0.189295          0.073799          0.000000         -0.060491          0.032640         -0.019050
                  0.861319         -1.052406          0.000000          0.321978         -0.029667         -0.449670
                 -0.000000         -0.118831          0.000000         -0.000000         -0.053195          0.070703
   1   3          0.000000          0.000000          0.014945         -0.003458         -0.016314         -0.020531
                  0.000000          0.000000          0.034441         -0.018030          0.000511         -0.020131
                  0.000000          0.000000         -0.088611          0.666419         -0.441173         -0.941350
                  0.000000          0.000000         -0.020647          0.000000         -0.126759          0.042825
   2   1          0.007338          0.003698         -0.003458          0.014473         -0.009103          0.000000
                 -0.021700          0.005789          0.046580         -0.051799          0.066561          0.000000
                  0.012106          0.005922         -0.041896         -0.555164          0.784498          0.000000
                 -0.006331         -0.000000         -0.000000          0.053044         -0.000000          0.000000
   2   2          0.003698         -0.011261         -0.016314         -0.009103         -0.019876          0.000000
                  0.004171          0.020390         -0.012796          0.017783         -0.014465          0.000000
                  0.015222         -0.032865          0.044560          0.243618         -0.949014          0.000000
                 -0.000000         -0.031036         -0.019483         -0.000000         -0.085982          0.000000
   2   3         -0.003458         -0.016314         -0.020531          0.000000          0.000000          0.014945
                  0.107192          0.035137         -0.007170          0.000000          0.000000          0.009538
                 -0.010074          0.015833         -0.007284          0.000000          0.000000         -0.021007
                  0.000000         -0.009813          0.002288          0.000000          0.000000         -0.021220
   3   1         -0.070287          0.189295          0.000000         -0.021700          0.004171          0.107192
                 -0.132809          0.179542          0.000000         -0.048567          0.064009          0.048117
                 -1.598516          0.252719          0.000000          0.251182          0.066351         -0.126213
                 -0.616722          0.201724          0.000000         -0.664071          0.290678          0.843128
   3   2          0.086419          0.073799          0.000000          0.005789          0.020390          0.035137
                  0.179542         -0.280862          0.000000          0.064009         -0.126921         -0.114631
                 -0.252719         -0.373715          0.000000          0.147309          0.164169         -0.131130
                  0.642405         -0.788694          0.000000          0.365967         -0.168136         -0.461932
   3   3          0.000000          0.000000          0.034441          0.046580         -0.012796         -0.007170
                  0.000000          0.000000         -0.027810          0.048117         -0.114631          0.016789
                  0.000000          0.000000         -0.271608         -0.053225          0.001711          0.189418
                  0.000000          0.000000         -0.274190          0.817605         -0.361648         -0.549917
   4   1          0.028220         -0.060491         -0.018030         -0.051799          0.017783          0.000000
                 -0.048567          0.064009          0.048117         -0.132809          0.179542          0.000000
                  0.251182         -0.147309          0.053225         -0.898380         -0.652576          0.000000
                 -0.028760          0.031471         -0.035172         -0.100899          0.949827          0.000000
   4   2         -0.039468          0.032640          0.000511          0.066561         -0.014465          0.000000
                  0.064009         -0.126921         -0.114631          0.179542         -0.280862          0.000000
                 -0.066351          0.164169          0.001711          0.652576         -0.355893          0.000000
                  0.001870         -0.064309          0.143990         -0.479128         -0.653813          0.000000
   4   3         -0.007767         -0.019050         -0.020131          0.000000          0.000000          0.009538
                  0.048117         -0.114631          0.016789          0.000000          0.000000         -0.027810
                  0.126213         -0.131130          0.189418          0.000000          0.000000         -0.675902
                 -0.060275          0.055187          0.041328          0.000000          0.000000         -0.312305
   5   1         -0.465510          0.861319          0.000000          0.012106          0.015222         -0.010074
                 -1.598516         -0.252719          0.000000          0.251182         -0.066351          0.126213
                  0.089182         -0.124275          0.000000         -0.018421          0.111983          0.114495
                 -0.187618          0.050609          0.000000         -0.021535         -0.000026         -0.001001
   5   2          0.262515         -1.052406          0.000000          0.005922         -0.032865          0.015833
                  0.252719         -0.373715          0.000000         -0.147309          0.164169         -0.131130
                 -0.124275          0.149197          0.000000          0.111983         -0.172446         -0.135142
                  0.075814          0.019494          0.000000          0.080142         -0.020361          0.022527
   5   3          0.000000          0.000000         -0.088611         -0.041896          0.044560         -0.007284
                  0.000000          0.000000         -0.271608          0.053225          0.001711          0.189418
                  0.000000          0.000000         -0.037760          0.114495         -0.135142         -0.094402
                  0.000000          0.000000         -0.069484         -0.005520         -0.052669          0.044439
   6   1         -0.509264          0.321978          0.666419         -0.555164          0.243618          0.000000
                  0.251182          0.147309         -0.053225         -0.898380          0.652576          0.000000
                 -0.018421          0.111983          0.114495          0.089182         -0.124275          0.000000
                 -0.125728         -0.000874          0.206076         -0.151071          0.119332          0.000000
   6   2          0.303914         -0.029667         -0.441173          0.784498         -0.949014          0.000000
                  0.066351          0.164169          0.001711         -0.652576         -0.355893          0.000000
                  0.111983         -0.172446         -0.135142         -0.124275          0.149197          0.000000
                  0.008882          0.013904          0.036596          0.140724         -0.007079          0.000000
   6   3          0.880781         -0.449670         -0.941350          0.000000          0.000000         -0.021007
                 -0.126213         -0.131130          0.189418          0.000000          0.000000         -0.675902
                  0.114495         -0.135142         -0.094402          0.000000          0.000000         -0.037760
                  0.138657         -0.058796         -0.017796          0.000000          0.000000         -0.015877
   7   1          0.070113         -0.000000          0.000000         -0.006331         -0.000000          0.000000
                 -0.616722          0.642405          0.000000         -0.028760          0.001870         -0.060275
                 -0.187618          0.075814          0.000000         -0.125728          0.008882          0.138657
                 -0.078395          0.243823          0.000000         -0.030813          0.034154          0.071832
   7   2         -0.000000         -0.118831          0.000000         -0.000000         -0.031036         -0.009813
                  0.201724         -0.788694          0.000000          0.031471         -0.064309          0.055187
                  0.050609          0.019494          0.000000         -0.000874          0.013904         -0.058796
                  0.243823         -0.288026          0.000000          0.034154         -0.084283         -0.080696
   7   3          0.000000          0.000000         -0.020647         -0.000000         -0.019483          0.002288
                  0.000000          0.000000         -0.274190         -0.035172          0.143990          0.041328
                  0.000000          0.000000         -0.069484          0.206076          0.036596         -0.017796
                  0.000000          0.000000          0.052688          0.071832         -0.080696          0.008961
   8   1          0.026979         -0.000000          0.000000          0.053044         -0.000000          0.000000
                 -0.664071          0.365967          0.817605         -0.100899         -0.479128          0.000000
                 -0.021535          0.080142         -0.005520         -0.151071          0.140724          0.000000
                 -0.030813          0.034154          0.071832         -0.078395          0.243823          0.000000
   8   2         -0.000000         -0.053195         -0.126759         -0.000000         -0.085982          0.000000
                  0.290678         -0.168136         -0.361648          0.949827         -0.653813          0.000000
                 -0.000026         -0.020361         -0.052669          0.119332         -0.007079          0.000000
                  0.034154         -0.084283         -0.080696          0.243823         -0.288026          0.000000
   8   3         -0.000000          0.070703          0.042825          0.000000          0.000000         -0.021220
                  0.843128         -0.461932         -0.549917          0.000000          0.000000         -0.312305
                 -0.001001          0.022527          0.044439          0.000000          0.000000         -0.015877
                  0.071832         -0.080696          0.008961          0.000000          0.000000          0.052688

 Supercell   3 at (0,1,0)        5.825 A                             
   1   1          0.014473          0.009103          0.000000          0.007338         -0.003698          0.003458
                 -0.555164         -0.784498          0.000000          0.012106         -0.005922          0.041896
                 -0.051799         -0.066561          0.000000         -0.021700         -0.005789         -0.046580
                  0.053044         -0.000000          0.000000         -0.006331         -0.000000         -0.000000
   1   2          0.009103         -0.019876          0.000000         -0.003698         -0.011261         -0.016314
                 -0.243618         -0.949014          0.000000         -0.015222         -0.032865          0.044560
                 -0.017783         -0.014465          0.000000         -0.004171          0.020390         -0.012796
                 -0.000000         -0.085982          0.000000         -0.000000         -0.031036         -0.019483
   1   3          0.000000          0.000000          0.014945          0.003458         -0.016314         -0.020531
                  0.000000          0.000000         -0.021007          0.010074          0.015833         -0.007284
                  0.000000          0.000000          0.009538         -0.107192          0.035137         -0.007170
                  0.000000          0.000000         -0.021220          0.000000         -0.009813          0.002288
   2   1          0.007338         -0.003698          0.003458          0.014473          0.009103          0.000000
                 -0.509264         -0.303914         -0.880781         -0.465510         -0.262515          0.000000
                  0.028220          0.039468          0.007767         -0.070287         -0.086419          0.000000
                  0.026979         -0.000000         -0.000000          0.070113         -0.000000          0.000000
   2   2         -0.003698         -0.011261         -0.016314          0.009103         -0.019876          0.000000
                 -0.321978         -0.029667         -0.449670         -0.861319         -1.052406          0.000000
                  0.060491          0.032640         -0.019050         -0.189295          0.073799          0.000000
                 -0.000000         -0.053195          0.070703         -0.000000         -0.118831          0.000000
   2   3          0.003458         -0.016314         -0.020531          0.000000          0.000000          0.014945
                 -0.666419         -0.441173         -0.941350          0.000000          0.000000         -0.088611
                  0.018030          0.000511         -0.020131          0.000000          0.000000          0.034441
                  0.000000         -0.126759          0.042825          0.000000          0.000000         -0.020647
   3   1         -0.555164         -0.243618          0.000000         -0.509264         -0.321978         -0.666419
                  0.089182          0.124275          0.000000         -0.018421         -0.111983         -0.114495
                 -0.898380         -0.652576          0.000000          0.251182         -0.147309          0.053225
                 -0.151071         -0.119332          0.000000         -0.125728          0.000874         -0.206076
   3   2         -0.784498         -0.949014          0.000000         -0.303914         -0.029667         -0.441173
                  0.124275          0.149197          0.000000         -0.111983         -0.172446         -0.135142
                  0.652576         -0.355893          0.000000         -0.066351          0.164169          0.001711
                 -0.140724         -0.007079          0.000000         -0.008882          0.013904          0.036596
   3   3          0.000000          0.000000         -0.021007         -0.880781         -0.449670         -0.941350
                  0.000000          0.000000         -0.037760         -0.114495         -0.135142         -0.094402
                  0.000000          0.000000         -0.675902          0.126213         -0.131130          0.189418
                  0.000000          0.000000         -0.015877         -0.138657         -0.058796         -0.017796
   4   1          0.012106         -0.015222          0.010074         -0.465510         -0.861319          0.000000
                 -0.018421         -0.111983         -0.114495          0.089182          0.124275          0.000000
                  0.251182          0.066351         -0.126213         -1.598516          0.252719          0.000000
                 -0.021535          0.000026          0.001001         -0.187618         -0.050609          0.000000
   4   2         -0.005922         -0.032865          0.015833         -0.262515         -1.052406          0.000000
                 -0.111983         -0.172446         -0.135142          0.124275          0.149197          0.000000
                  0.147309          0.164169         -0.131130         -0.252719         -0.373715          0.000000
                 -0.080142         -0.020361          0.022527         -0.075814          0.019494          0.000000
   4   3          0.041896          0.044560         -0.007284          0.000000          0.000000         -0.088611
                 -0.114495         -0.135142         -0.094402          0.000000          0.000000         -0.037760
                 -0.053225          0.001711          0.189418          0.000000          0.000000         -0.271608
                  0.005520         -0.052669          0.044439          0.000000          0.000000         -0.069484
   5   1         -0.051799         -0.017783          0.000000          0.028220          0.060491          0.018030
                 -0.898380          0.652576          0.000000          0.251182          0.147309         -0.053225
                 -0.132809         -0.179542          0.000000         -0.048567         -0.064009         -0.048117
                 -0.100899         -0.949827          0.000000         -0.028760         -0.031471          0.035172
   5   2         -0.066561         -0.014465          0.000000          0.039468          0.032640          0.000511
                 -0.652576         -0.355893          0.000000          0.066351          0.164169          0.001711
                 -0.179542         -0.280862          0.000000         -0.064009         -0.126921         -0.114631
                  0.479128         -0.653813          0.000000         -0.001870         -0.064309          0.143990
   5   3          0.000000          0.000000          0.009538          0.007767         -0.019050         -0.020131
                  0.000000          0.000000         -0.675902         -0.126213         -0.131130          0.189418
                  0.000000          0.000000         -0.027810         -0.048117         -0.114631          0.016789
                  0.000000          0.000000         -0.312305          0.060275          0.055187          0.041328
   6   1         -0.021700         -0.004171         -0.107192         -0.070287         -0.189295          0.000000
                  0.251182         -0.066351          0.126213         -1.598516         -0.252719          0.000000
                 -0.048567         -0.064009         -0.048117         -0.132809         -0.179542          0.000000
                 -0.664071         -0.290678         -0.843128         -0.616722         -0.201724          0.000000
   6   2         -0.005789          0.020390          0.035137         -0.086419          0.073799          0.000000
                 -0.147309          0.164169         -0.131130          0.252719         -0.373715          0.000000
                 -0.064009         -0.126921         -0.114631         -0.179542         -0.280862          0.000000
                 -0.365967         -0.168136         -0.461932         -0.642405         -0.788694          0.000000
   6   3         -0.046580         -0.012796         -0.007170          0.000000          0.000000          0.034441
                  0.053225          0.001711          0.189418          0.000000          0.000000         -0.271608
                 -0.048117         -0.114631          0.016789          0.000000          0.000000         -0.027810
                 -0.817605         -0.361648         -0.549917          0.000000          0.000000         -0.274190
   7   1          0.053044         -0.000000          0.000000          0.026979         -0.000000          0.000000
                 -0.151071         -0.140724          0.000000         -0.021535         -0.080142          0.005520
                 -0.100899          0.479128          0.000000         -0.664071         -0.365967         -0.817605
                 -0.078395         -0.243823          0.000000         -0.030813         -0.034154         -0.071832
   7   2         -0.000000         -0.085982          0.000000         -0.000000         -0.053195         -0.126759
                 -0.119332         -0.007079          0.000000          0.000026         -0.020361         -0.052669
                 -0.949827         -0.653813          0.000000         -0.290678         -0.168136         -0.361648
                 -0.243823         -0.288026          0.000000         -0.034154         -0.084283         -0.080696
   7   3          0.000000          0.000000         -0.021220         -0.000000          0.070703          0.042825
                  0.000000          0.000000         -0.015877          0.001001          0.022527          0.044439
                  0.000000          0.000000         -0.312305         -0.843128         -0.461932         -0.549917
                  0.000000          0.000000          0.052688         -0.071832         -0.080696          0.008961
   8   1         -0.006331         -0.000000          0.000000          0.070113         -0.000000          0.000000
                 -0.125728         -0.008882         -0.138657         -0.187618         -0.075814          0.000000
                 -0.028760         -0.001870          0.060275         -0.616722         -0.642405          0.000000
                 -0.030813         -0.034154         -0.071832         -0.078395         -0.243823          0.000000
   8   2         -0.000000         -0.031036         -0.009813         -0.000000         -0.118831          0.000000
                  0.000874          0.013904         -0.058796         -0.050609          0.019494          0.000000
                 -0.031471         -0.064309          0.055187         -0.201724         -0.788694          0.000000
                 -0.034154         -0.084283         -0.080696         -0.243823         -0.288026          0.000000
[...]
 +        Character table from group theory analysis of eigenvectors          +
 +                           Point Group =   8, D2h                           +
 + .......................................................................... +
 +  Rep  Mul |    E   2   m   m                                               +
 +           | ----------------                                               +
 + a       7 |    1  -1   1  -1                                               +
 + b       5 |    1  -1  -1   1                                               +
 + c       7 |    1   1   1   1                                               +
 + d       5 |    1   1  -1  -1                                               +
 + -------------------------------------------------------------------------- +
 +  q-pt=   25 (  0.000000  0.000000  0.357143)     0.0370370370              +
 + -------------------------------------------------------------------------- +
 +  Acoustic sum rule correction <   0.002203 THz applied                     +
 +     N      Frequency irrep.                                                + 
 +                 (THz)                                                      + 
 +                                                                            +
 +     1       2.640341   a                                                   + 
 +     2       2.774689   b                                                   + 
 +     3       3.504766   c                                                   + 
 +     4       3.993848   d                                                   + 
 +     5       4.724716   b                                                   + 
 +     6       4.853936   a                                                   + 
 +     7       5.166372   c                                                   + 
 +     8       5.178850   a                                                   + 
 +     9       5.375013   d                                                   + 
 +    10       5.500778   c                                                   + 
 +    11       5.838191   a                                                   + 
 +    12       5.916208   c                                                   + 
 +    13       5.917042   d                                                   + 
 +    14       6.475261   b                                                   + 
 +    15       6.769363   c                                                   + 
 +    16       6.800995   d                                                   + 
 +    17       7.003764   b                                                   + 
 +    18       7.134328   a                                                   + 
 +    19       7.642730   a                                                   + 
 +    20       7.674648   c                                                   + 
 +    21       8.738579   c                                                   + 
 +    22       8.746420   a                                                   + 
 +    23       8.974462   d                                                   + 
 +    24       9.287825   b                                                   + 
 + .......................................................................... +
 +        Character table from group theory analysis of eigenvectors          +
 +                           Point Group =   8, D2h                           +
 + .......................................................................... +
 +  Rep  Mul |    E   2   m   m                                               +
 +           | ----------------                                               +
 + a       7 |    1  -1   1  -1                                               +
 + b       5 |    1  -1  -1   1                                               +
 + c       7 |    1   1   1   1                                               +
 + d       5 |    1   1  -1  -1                                               +
 + -------------------------------------------------------------------------- +
 +  q-pt=   26 (  0.000000  0.000000  0.428571)     0.0370370370              +
 + -------------------------------------------------------------------------- +
 +  Acoustic sum rule correction <   0.001653 THz applied                     +
 +     N      Frequency irrep.                                                + 
 +                 (THz)                                                      + 
 +                                                                            +
 +     1       2.979117   a                                                   + 
 +     2       3.176680   b                                                   + 
 +     3       3.404201   c                                                   + 
 +     4       3.796641   d                                                   + 
 +     5       5.003234   b                                                   + 
 +     6       5.089621   a                                                   + 
 +     7       5.377245   d                                                   + 
 +     8       5.405896   c                                                   + 
 +     9       5.480992   a                                                   + 
 +    10       5.690058   c                                                   + 
 +    11       5.851358   c                                                   + 
 +    12       5.886100   a                                                   + 
 +    13       6.192146   d                                                   + 
 +    14       6.466659   b                                                   + 
 +    15       6.657088   d                                                   + 
 +    16       6.724957   c                                                   + 
 +    17       6.811573   b                                                   + 
 +    18       7.049402   a                                                   + 
 +    19       7.725027   a                                                   + 
 +    20       7.759710   c                                                   + 
 +    21       8.812591   a                                                   + 
 +    22       8.818988   c                                                   + 
 +    23       9.128899   d                                                   + 
 +    24       9.290024   b                                                   + 
 + .......................................................................... +
 +        Character table from group theory analysis of eigenvectors          +
 +                           Point Group =   8, D2h                           +
 + .......................................................................... +
 +  Rep  Mul |    E   2   m   m                                               +
 +           | ----------------                                               +
 + a       7 |    1  -1   1  -1                                               +
 + b       5 |    1  -1  -1   1                                               +
 + c       7 |    1   1   1   1                                               +
 + d       5 |    1   1  -1  -1                                               +
 + -------------------------------------------------------------------------- +
 +  q-pt=   27 (  0.000000  0.000000  0.500000)     0.0370370370              +
 + -------------------------------------------------------------------------- +
 +  Acoustic sum rule correction <   0.002457 THz applied                     +
 +     N      Frequency irrep.                                                + 
 +                 (THz)                                                      + 
 +                                                                            +
 +     1       3.232705   a                                                   + 
 +     2       3.232705   a                                                   + 
 +     3       3.519683   b                                                   + 
 +     4       3.519683   b                                                   + 
 +     5       5.243554   b                                                   + 
 +     6       5.243554   b                                                   + 
 +     7       5.283713   a                                                   + 
 +     8       5.283713   a                                                   + 
 +     9       5.676542   a                                                   + 
 +    10       5.676542   a                                                   + 
 +    11       5.899623   a                                                   + 
 +    12       5.899623   a                                                   + 
 +    13       6.394014   b                                                   + 
 +    14       6.394014   b                                                   + 
 +    15       6.653386   b                                                   + 
 +    16       6.653386   b                                                   + 
 +    17       6.861490   a                                                   + 
 +    18       6.861490   a                                                   + 
 +    19       7.780154   a                                                   + 
 +    20       7.780154   a                                                   + 
 +    21       8.840920   a                                                   + 
 +    22       8.840920   a                                                   + 
 +    23       9.238636   b                                                   + 
 +    24       9.238636   b                                                   + 
 + .......................................................................... +
 +        Character table from group theory analysis of eigenvectors          +
 +                           Point Group =   8, D2h                           +
 + .......................................................................... +
 +  Rep  Mul |    E   I   2   m   2   m   2   m                               +
 +           | --------------------------------                               +
 + a       7 |    2   0   0   0   0   2   0   0                               +
 + b       5 |    2   0   0   0   0  -2   0   0                               +
 ==============================================================================

 ******************** Symmetrised Forces ********************
 *                                                          *
 *               Cartesian components (eV/A)                *
 * -------------------------------------------------------- *
 *                         x            y            z      *
 *                                                          *
 * Al              1      0.00000      0.00097     -0.00000 *
 * Al              2     -0.00000     -0.00097      0.00000 *
 * Ti              1      0.00001      0.00106      0.00000 *
 * Ti              2     -0.00001     -0.00106      0.00000 *
 * Ti              3     -0.00001      0.00106      0.00000 *
 * Ti              4      0.00001     -0.00106      0.00000 *
 * Ti              5     -0.00000      0.00042      0.00000 *
 * Ti              6      0.00000     -0.00042     -0.00000 *
 *                                                          *
 ************************************************************

 *********** Symmetrised Stress Tensor ***********
 *                                               *
 *          Cartesian components (GPa)           *
 * --------------------------------------------- *
 *             x             y             z     *
 *                                               *
 *  x     -1.597831      0.000000      0.000000  *
 *  y      0.000000      1.599236      0.000000  *
 *  z      0.000000      0.000000     -0.000871  *
 *                                               *
 *  Pressure:   -0.0002                          *
 *                                               *
 *************************************************

 Pseudo atomic calculation performed for Al 3s2 3p1

 Converged in 22 iterations to a total energy of -107.1308 eV

 Pseudo atomic calculation performed for Ti 3s2 3p6 3d2 4s2

 Converged in 51 iterations to a total energy of -1587.0236 eV
Charge spilling parameter for spin component 1 = 0.14%

            Orbital Populations       
     Ion    Atom   Orbital             Charge
  -------------------------------------------
     Al     1      S                    0.957
     Al     1      Px                   0.722
     Al     1      Py                   0.683
     Al     1      Pz                   0.640
     Al     2      S                    0.957
     Al     2      Px                   0.722
     Al     2      Py                   0.683
     Al     2      Pz                   0.640
     Ti     1      S                    2.003
     Ti     1      Px                   2.006
     Ti     1      Py                   2.006
     Ti     1      Pz                   2.006
     Ti     1      S                    0.323
     Ti     1      Dzz                  0.617
     Ti     1      Dzy                  0.528
     Ti     1      Dzx                  0.490
     Ti     1      Dxx-yy               0.577
     Ti     1      Dxy                  0.550
     Ti     1      Px                   0.314
     Ti     1      Py                   0.297
     Ti     1      Pz                   0.292
     Ti     2      S                    2.003
     Ti     2      Px                   2.006
     Ti     2      Py                   2.006
     Ti     2      Pz                   2.006
     Ti     2      S                    0.323
     Ti     2      Dzz                  0.617
     Ti     2      Dzy                  0.528
     Ti     2      Dzx                  0.490
     Ti     2      Dxx-yy               0.577
     Ti     2      Dxy                  0.550
     Ti     2      Px                   0.314
     Ti     2      Py                   0.297
     Ti     2      Pz                   0.292
     Ti     3      S                    2.003
     Ti     3      Px                   2.006
     Ti     3      Py                   2.006
     Ti     3      Pz                   2.006
     Ti     3      S                    0.316
     Ti     3      Dzz                  0.612
     Ti     3      Dzy                  0.525
     Ti     3      Dzx                  0.488
     Ti     3      Dxx-yy               0.583
     Ti     3      Dxy                  0.567
     Ti     3      Px                   0.309
     Ti     3      Py                   0.290
     Ti     3      Pz                   0.295
     Ti     4      S                    2.003
     Ti     4      Px                   2.006
     Ti     4      Py                   2.006
     Ti     4      Pz                   2.006
     Ti     4      S                    0.316
     Ti     4      Dzz                  0.612
     Ti     4      Dzy                  0.525
     Ti     4      Dzx                  0.488
     Ti     4      Dxx-yy               0.583
     Ti     4      Dxy                  0.567
     Ti     4      Px                   0.309
     Ti     4      Py                   0.290
     Ti     4      Pz                   0.295
     Ti     5      S                    2.003
     Ti     5      Px                   2.006
     Ti     5      Py                   2.006
     Ti     5      Pz                   2.006
     Ti     5      S                    0.339
     Ti     5      Dzz                  0.591
     Ti     5      Dzy                  0.493
     Ti     5      Dzx                  0.513
     Ti     5      Dxx-yy               0.500
     Ti     5      Dxy                  0.595
     Ti     5      Px                   0.280
     Ti     5      Py                   0.346
     Ti     5      Pz                   0.309
     Ti     6      S                    2.003
     Ti     6      Px                   2.006
     Ti     6      Py                   2.006
     Ti     6      Pz                   2.006
     Ti     6      S                    0.339
     Ti     6      Dzz                  0.591
     Ti     6      Dzy                  0.493
     Ti     6      Dzx                  0.513
     Ti     6      Dxx-yy               0.500
     Ti     6      Dxy                  0.595
     Ti     6      Px                   0.280
     Ti     6      Py                   0.346
     Ti     6      Pz                   0.309
  -------------------------------------------
                           Total:      78.000
  -------------------------------------------

     Atomic Populations (Mulliken)
     -----------------------------
Species          Ion     s       p       d       f      Total   Charge (e)
==========================================================================
  Al              1     0.957   2.045   0.000   0.000   3.002    -0.002
  Al              2     0.957   2.045   0.000   0.000   3.002    -0.002
  Ti              1     2.322   6.915   2.768   0.000  12.006    -0.006
  Ti              2     2.322   6.915   2.768   0.000  12.006    -0.006
  Ti              3     2.322   6.915   2.768   0.000  12.006    -0.006
  Ti              4     2.322   6.915   2.768   0.000  12.006    -0.006
  Ti              5     2.342   6.953   2.691   0.000  11.987     0.013
  Ti              6     2.342   6.953   2.691   0.000  11.987     0.013
==========================================================================

                 Bond                   Population      Length (A)
======================================================================
              Ti 5 -- Ti 6                   0.09        2.83179
              Ti 4 -- Ti 5                  -0.07        2.83490
              Ti 3 -- Ti 6                  -0.07        2.83490
              Ti 2 -- Ti 5                  -0.07        2.83490
              Ti 1 -- Ti 6                  -0.07        2.83490
              Al 1 -- Al 2                   0.50        2.83917
              Al 2 -- Ti 3                   0.32        2.85827
              Al 2 -- Ti 1                   0.32        2.85827
              Al 1 -- Ti 2                   0.32        2.85827
              Al 1 -- Ti 4                   0.32        2.85827
              Ti 2 -- Ti 4                   0.01        2.86341
              Ti 1 -- Ti 3                   0.01        2.86341
              Ti 3 -- Ti 4                  -0.19        2.86482
              Ti 1 -- Ti 2                  -0.19        2.86482
              Ti 4 -- Ti 6                   0.14        2.87649
              Ti 3 -- Ti 5                   0.14        2.87649
              Ti 2 -- Ti 6                   0.14        2.87649
              Ti 1 -- Ti 5                   0.14        2.87649
              Al 1 -- Ti 3                   0.43        2.90675
              Al 2 -- Ti 4                   0.43        2.90675
              Al 2 -- Ti 2                   0.43        2.90675
              Al 1 -- Ti 1                   0.43        2.90675
              Al 2 -- Ti 6                   0.44        2.91271
              Al 1 -- Ti 5                   0.44        2.91271
======================================================================


Writing analysis data to ti64_hcp_phonon_AlAl.castep_bin

Writing model to ti64_hcp_phonon_AlAl.check
 
 A BibTeX formatted list of references used in this run has been written to 
 ti64_hcp_phonon_AlAl.bib
 
Initialisation time =     12.32 s
Calculation time    =  22706.58 s
Finalisation time   =      1.86 s
Total time          =  22720.76 s
Peak Memory Use     = 2925260 kB
 
Overall parallel efficiency rating: Mediocre (53%)
 
Data was distributed by:-
G-vector (6-way); efficiency rating: Mediocre (55%)
k-point (32-way); efficiency rating: Excellent (94%)
