 +-------------------------------------------------+
 |                                                 |
 |      CCC   AA    SSS  TTTTT  EEEEE  PPPP        |
 |     C     A  A  S       T    E      P   P       |
 |     C     AAAA   SS     T    EEE    PPPP        |
 |     C     A  A     S    T    E      P           |
 |      CCC  A  A  SSS     T    EEEEE  P           |
 |                                                 |
 +-------------------------------------------------+
 |                                                 |
 | Welcome to Academic Release CASTEP version 24.1 |
 | Ab Initio Total Energy Program                  |
 |                                                 |
 | Authors:                                        |
 | M. Segall, M. Probert, C. Pickard, P. Hasnip,   |
 | S. Clark, K. Refson, J. R. Yates,               |
 | A. Bartok-Partay, M. Payne                      |
 |                                                 |
 | Contributors:                                   |
 | P. Lindan, P. Haynes, J. White, V. Milman,      |
 | N. Govind, M. Gibson, P. Tulip, V. Cocula,      |
 | B. Montanari, D. Quigley, M. Glover,            |
 | L. Bernasconi, A. Perlov, M. Plummer,           |
 | E. McNellis, J. Meyer, J. Gale, D. Jochym       |
 | J. Aarons, B. Walker, R. Gillen, D. Jones       |
 | T. Green, I. J. Bush, C. J. Armstrong,          |
 | E. J. Higgins, E. L. Brown, M. S. McFly,        |
 | J. Wilkins, B-C. Shih, P. J. P. Byrne,          |
 | R. J. Maurer, J. C. Womack, J. Dziedzic,        |
 | L. LeBlanc, T. K. Stenczel, J. Kermode,         |
 | S. Sturniolo, B. Shi, B. Durham, M. Evans,      |
 | M. J. Smith, A. Tamerus, Z. Hawkhead,           |
 | V. Ravindran, T. Hollins, S. A. Joyce,          |
 | R. T. Strong, A. M. Reilly                      |
 |                                                 |
 | Copyright (c) 2000 - 2023                       |
 |                                                 |
 |     Distributed under license from Cambridge    |
 |     Enterprise for academic use only.           |
 |                                                 |
 | Please cite                                     |
 |                                                 |
 |     "First principles methods using CASTEP"     |
 |                                                 |
 |         Zeitschrift fuer Kristallographie       |
 |           220(5-6) pp. 567-570 (2005)           |
 |                                                 |
 | S. J. Clark, M. D. Segall, C. J. Pickard,       |
 | P. J. Hasnip, M. J. Probert, K. Refson,         |
 | M. C. Payne                                     |
 |                                                 |
 |       in all publications arising from          |
 |              your use of CASTEP                 |
 |                                                 |
 +-------------------------------------------------+
 |                                                 |
 |              http://www.castep.org              |
 |                                                 |
 +-------------------------------------------------+



 Compiled for linux_x86_64_gfortran10 on Tue, 02 May 2023 15:31:46 +0100
 from code version db08e394c+  default  Mon May 1 16:40:39 2023 +0100
 Compiler: GNU Fortran 10.2.0; Optimisation: fast
 Comms   : Open MPI v4.0.5
 MATHLIBS: openblas (LAPACK version 3.9.0)
 FFT Lib : fftw3 version fftw-3.3.8-sse2-avx-avx2-avx2_128
 Fundamental constants values: CODATA 2018

 Run started: Wed, 10 Apr 2024 11:15:01 +0100
 +-------------------------------------------------+
 |                                                 |
 |  D D D D    F F F F F  P P P P     T T T T T    |
 |  D       D  F          P       P       T        |
 |  D       D  F F F F    P P P P         T        |
 |  D       D  F          P               T        |
 |  D D D D    F          P               T        |
 |                                                 |
 +-------------------------------------------------+
 |                                                 |
 | Welcome to Castep Linear Response (DFPT)        |
 |                                                 |
 | Copyright (c) 2006 - 2023                       |
 |                                                 |
 | Please cite the following publications in all   |
 | work arising from your use of CASTEP LR.        |
 |                                                 |
 | K. Refson, S. J. Clark and P. R. Tulip          |
 | Variational density functional perturbation     |
 | theory for dielectrics and lattice dynamics     |
 | Phys. Rev. B 73(15), 155114 (2006)              |
 +-------------------------------------------------+

Reading continuation data from model file ti64_hcp_phonon.check

 Atomic calculation performed for Al: 1s2 2s2 2p6 3s2 3p1

 Converged in 54 iterations to an ae energy of -6603.783 eV

   ============================================================                
   | Pseudopotential Report - Date of generation 10-04-2024   |                
   ------------------------------------------------------------                
   | Element: Al Ionic charge:  3.00 Level of theory: PBE     |                
   | Atomic Solver: Koelling-Harmon                           |                
   |                                                          |                
   |               Reference Electronic Structure             |                
   |         Orbital         Occupation         Energy        |                
   |            3s              2.000           -0.285        |                
   |            3p              1.000           -0.100        |                
   |                                                          |                
   |                 Pseudopotential Definition               |                
   |        Beta     l      e      Rc     scheme   norm       |                
   |          1      0   -0.285   2.192     qc      0         |                
   |          2      0    0.250   2.192     qc      0         |                
   |          3      1   -0.100   2.192     qc      0         |                
   |          4      1    0.250   2.192     qc      0         |                
   |          5      2    0.000   2.000     qc      0         |                
   |          6      2    0.250   2.000     qc      0         |                
   |         loc     3    0.000   2.192     pn      0         |                
   |                                                          |                
   | Augmentation charge Rinner = 1.398                       |                
   | Partial core correction Rc = 1.398                       |                
   ------------------------------------------------------------                
   | "3|2.2|2.2|1.4|4|5|5|30:31:32U2U2"                       |                
   ------------------------------------------------------------                
   |      Author: Chris J. Pickard, Cambridge University      |                
   ============================================================                

 Atomic calculation performed for Ti: 1s2 2s2 2p6 3s2 3p6 3d2 4s2

 Converged in 79 iterations to an ae energy of -23226.658 eV

   ============================================================                
   | Pseudopotential Report - Date of generation 10-04-2024   |                
   ------------------------------------------------------------                
   | Element: Ti Ionic charge: 12.00 Level of theory: PBE     |                
   | Atomic Solver: Koelling-Harmon                           |                
   |                                                          |                
   |               Reference Electronic Structure             |                
   |         Orbital         Occupation         Energy        |                
   |            3s              2.000           -2.302        |                
   |            3p              6.000           -1.428        |                
   |            4s              2.000           -0.164        |                
   |            3d              2.000           -0.157        |                
   |                                                          |                
   |                 Pseudopotential Definition               |                
   |        Beta     l      e      Rc     scheme   norm       |                
   |          1      0   -2.302   1.793     qc      0         |                
   |          2      0   -0.164   1.793     qc      0         |                
   |          3      0    0.250   1.793     qc      0         |                
   |          4      1   -1.428   1.793     qc      0         |                
   |          5      1    0.250   1.793     qc      0         |                
   |          6      2   -0.157   1.793     qc      0         |                
   |          7      2    0.250   1.793     qc      0         |                
   |         loc     3    0.000   1.793     pn      0         |                
   |                                                          |                
   | Augmentation charge Rinner = 1.263                       |                
   | Partial core correction Rc = 1.263                       |                
   ------------------------------------------------------------                
   | "3|1.8|9|10|11|30U:40:31:32(qc=5.5)"                     |                
   ------------------------------------------------------------                
   |      Author: Chris J. Pickard, Cambridge University      |                
   ============================================================                

 Atomic calculation performed for V: 1s2 2s2 2p6 3s2 3p6 3d3 4s2

 Converged in 81 iterations to an ae energy of -25823.733 eV

   ============================================================                
   | Pseudopotential Report - Date of generation 10-04-2024   |                
   ------------------------------------------------------------                
   | Element: V Ionic charge: 13.00 Level of theory: PBE      |                
   | Atomic Solver: Koelling-Harmon                           |                
   |                                                          |                
   |               Reference Electronic Structure             |                
   |         Orbital         Occupation         Energy        |                
   |            3s              2.000           -2.581        |                
   |            3p              6.000           -1.618        |                
   |            3d              3.000           -0.190        |                
   |            4s              2.000           -0.173        |                
   |                                                          |                
   |                 Pseudopotential Definition               |                
   |        Beta     l      e      Rc     scheme   norm       |                
   |          1      0   -2.581   1.803     qc      0         |                
   |          2      0   -0.173   1.803     qc      0         |                
   |          3      0    0.250   1.803     qc      0         |                
   |          4      1   -1.618   1.803     qc      0         |                
   |          5      1    0.250   1.803     qc      0         |                
   |          6      2   -0.190   1.803     qc      0         |                
   |          7      2    0.250   1.803     qc      0         |                
   |         loc     3    0.000   1.803     pn      0         |                
   |                                                          |                
   | Augmentation charge Rinner = 0.600                       |                
   | Partial core correction Rc = 0.600                       |                
   ------------------------------------------------------------                
   | "3|1.8|1.8|0.6|12|14|16|30U:40:31:32(qc=7)"              |                
   ------------------------------------------------------------                
   |      Author: Chris J. Pickard, Cambridge University      |                
   ============================================================                

 Pseudo atomic calculation performed for Al 3s2 3p1

 Converged in 22 iterations to a total energy of -107.1308 eV

 Pseudo atomic calculation performed for Ti 3s2 3p6 3d2 4s2

 Converged in 51 iterations to a total energy of -1587.0236 eV

 Pseudo atomic calculation performed for V 3s2 3p6 3d3 4s2

 Converged in 52 iterations to a total energy of -2065.7874 eV
Initialising basis set for model.
Reinitialising basis set for current geometry.
Continuing from previous run with ground state wavefunction.
Continuing from previous run with ground state density.
 WARNING: phonon fine_frequency data in check file HAS BEEN DISCARDED.
          because PHONON_FINE_KPOINT_LIST changed on continuation.
 WARNING: phonon thermal ADP data in check file HAS BEEN DISCARDED.
 Calculation parallelised over 32 processes.
 Data is distributed by k-point(32-way)

 ************************************ Title ************************************
 

 ***************************** General Parameters ******************************
  
 output verbosity                               : normal  (1)
 continuing from                                : ti64_hcp_phonon.check
 write checkpoint data to                       : ti64_hcp_phonon.check
 type of calculation                            : phonon calculation
 stress calculation                             : on
 density difference calculation                 : off
 electron localisation func (ELF) calculation   : off
 Hirshfeld analysis                             : off
 polarisation (Berry phase) analysis            : off
 molecular orbital projected DOS                : off
 deltaSCF calculation                           : off
 unlimited duration calculation
 timing information                             : on
 memory usage estimate                          : on
 write extra output files                       : on
 write final potential to formatted file        : off
 write final density to formatted file          : off
 write structure in CELL formatted file         : on
 write BibTeX reference list                    : on
 write OTFG pseudopotential files               : on
 write electrostatic potential file             : on
 write bands file                               : on
 checkpoint writing                             : both castep_bin and check files
  
 output         length unit                     : A
 output           mass unit                     : amu
 output           time unit                     : ps
 output         charge unit                     : e
 output           spin unit                     : hbar/2
 output         energy unit                     : eV
 output          force unit                     : eV/A
 output       velocity unit                     : A/ps
 output       pressure unit                     : GPa
 output     inv_length unit                     : 1/A
 output      frequency unit                     : THz
 output force constant unit                     : eV/A**2
 output         volume unit                     : A**3
 output   IR intensity unit                     : (D/A)**2/amu
 output         dipole unit                     : D
 output         efield unit                     : eV/A/e
 output        entropy unit                     : J/mol/K
 output    efield chi2 unit                     : pm/V
  
 wavefunctions paging                           : none
 random number generator seed                   :  121254587
 data distribution                              : k-point only
 optimization strategy                          : maximize speed(+++)

 *********************** Exchange-Correlation Parameters ***********************
  
 using functional                               : Perdew Burke Ernzerhof
 relativistic treatment                         : Koelling-Harmon
 DFT+D: Semi-empirical dispersion correction    : off

 ************************* Pseudopotential Parameters **************************
  
 pseudopotential representation                 : reciprocal space
 <beta|phi> representation                      : reciprocal space
 spin-orbit coupling                            : off

 **************************** Basis Set Parameters *****************************
  
 plane wave basis set cut-off                   :   800.0000   eV
 size of standard grid                          :     2.0000
 size of   fine   grid                          :     4.0000
 size of   fine   gmax                          :    57.9620   1/A
 largest prime factor in FFT                    :          5
 finite basis set correction                    : automatic
 number of sample energies                      :          3
           sample  spacing                      :     5.0000   eV

 **************************** Electronic Parameters ****************************
  
 number of  electrons                           :  88.00    
 net charge of system                           :  0.000    
 treating system as non-spin-polarized
 number of bands                                :         79

 ********************* Electronic Minimization Parameters **********************
  
 Method: Treating system as metallic with density mixing treatment of electrons,
         and number of  SD  steps               :          1
         and number of  CG  steps               :          4
  
 total energy / atom convergence tol.           : 0.1000E-08   eV
 eigen-energy convergence tolerance             : 0.1013E-09   eV
 max force / atom convergence tol.              : ignored
 convergence tolerance window                   :          3   cycles
 max. number of SCF cycles                      :        400
 number of fixed-spin iterations                :         10
 smearing scheme                                : Gaussian
 smearing width                                 : 0.5000E-01   eV
 Fermi energy convergence tolerance             : 0.2721E-13   eV
 periodic dipole correction                     : NONE

 ************************** Density Mixing Parameters **************************
  
 density-mixing scheme                          : Pulay
 max. length of mixing history                  :         20
 charge density mixing amplitude                : 0.8000    
 cut-off energy for mixing                      :  800.0       eV
 charge density mixing g-vector                 :  1.500       1/A

 *********************** Population Analysis Parameters ************************
  
 Population analysis with cutoff                :  3.000       A
 Population analysis output                     : summary and pdos components

 ****************************** Phonon Parameters ******************************
  
 phonon calculation method                      : finite displacement
 finite displacement amplitude                  : 0.1000E-01   A
 fine phonon calculation method                 : interpolation
 non-periodic force constant method             : Weighted cumulant sum
 force constant cutoff scale factor             :     1.0000
 LO/TO splitting term                           : not included
 acoustic phonon sum rule                       : correct D(q) in recip-space
 Born effective charges                         : not calculated
 Raman intensities                              : not calculated
 phonon extra output                            : real-space force constants
 phonon k-points                                : use reduced set
 phonon DOS                                     : not calculated
 no timed backups
 band convergence tolerance                     : 0.1000E-08   eV

 ******************************* Developer Code ********************************
  
 PARALLEL: kpoints=32 : ENDPARALLEL
 no_improve_wvfn

 *******************************************************************************
  

                           -------------------------------
                                      Unit Cell
                           -------------------------------
        Real Lattice(A)                      Reciprocal Lattice(1/A)
     2.8823340    -4.9923489     0.0000000        1.089947471  -0.629281466   0.000000000
     2.8823340     4.9923489     0.0000000        1.089947471   0.629281466   0.000000000
     0.0000000     0.0000000     4.6100500        0.000000000   0.000000000   1.362932139

                       Lattice parameters(A)       Cell Angles
                    a =      5.764668          alpha =   90.000000
                    b =      5.764668          beta  =   90.000000
                    c =      4.610050          gamma =  120.000000

                       Current cell volume =           132.673708       A**3
                                   density =             2.752053   AMU/A**3
                                           =             4.569891     g/cm^3

                           -------------------------------
                                     Cell Contents
                           -------------------------------
                         Total number of ions in cell =    8
                      Total number of species in cell =    3
                        Max number of any one species =    6

            xxxxxxxxxxxxxxxxxxxxxxxxxxxxxxxxxxxxxxxxxxxxxxxxxxxxxxxxxxxx
            x  Element    Atom        Fractional coordinates of atoms  x
            x            Number           u          v          w      x
            x----------------------------------------------------------x
            x  Al           1         0.165599   0.334401   0.250000   x 
            x  Ti           1         0.168265   0.841691   0.250000   x 
            x  Ti           2         0.335219   0.662634   0.750000   x 
            x  Ti           3         0.658309   0.331735   0.250000   x 
            x  Ti           4         0.837366   0.164781   0.750000   x 
            x  Ti           5         0.669020   0.830980   0.250000   x 
            x  Ti           6         0.834963   0.665036   0.750000   x 
            x  V            1         0.331259   0.168741   0.750000   x 
            xxxxxxxxxxxxxxxxxxxxxxxxxxxxxxxxxxxxxxxxxxxxxxxxxxxxxxxxxxxx


                         No user defined ionic velocities

                           -------------------------------
                                   Details of Species
                           -------------------------------

                               Mass of species in AMU
                                    Al   26.9815400
                                    Ti   47.8670000
                                    V   50.9415000

                          Electric Quadrupole Moment (Barn)
                                    Al    0.1466000 Isotope 27
                                    Ti    0.3020000 Isotope 47
                                    V   -0.0520000 Isotope 51

                          Files used for pseudopotentials:
                                    Al 3|2.2|2.2|1.4|4|5|5|30:31:32U2U2
                                    Ti 3|1.8|9|10|11|30U:40:31:32(qc=5.5)
                                    V 3|1.8|1.8|0.6|12|14|16|30U:40:31:32(qc=7)

                           -------------------------------
                              k-Points For BZ Sampling
                           -------------------------------
                       MP grid size for SCF calculation is 11 11 11
                            with an offset of   0.000  0.000  0.000
                       Number of kpoints used =           216

                           -------------------------------
                               Symmetry and Constraints
                           -------------------------------

                      Maximum deviation from symmetry = 0.576467E-05     ANG

 !-----------------------------------------------------------------------------!
 !                                                                             !
 !                     * * *      W A R N I N G     * * *                      !
 !                                                                             !
 !   Atomic positions are slightly inconsistent with symmetry operations,      !
 !   (although the discrepancy is lower than value of SYMMETRY_TOL).           !
  !   In severe cases this could lead to seriously inaccurate results.         !
 !                                                                             !
 !   It is recommended that symmetries are satisfied to a tolerance of 1e-8au  !
 !   or better. Consider one or more of the following:                         !
 !     - Adjust input so that atomic positions and symmetry are consistent.    !
 !     - Use SNAP_TO_SYMMETRY keyword in the cell file to adjust co-ordinates. !
 !     - Reduce the value of SYMMETRY_TOL in the cell file.                    !
 !     - Remove incorrect symmetry operations from .cell file.                 !
 !                                                                             !
 !-----------------------------------------------------------------------------!


                      Number of symmetry operations   =           4
                      Number of ionic constraints     =           3
                      Point group of crystal =     6: C2v, mm2, 2 mm
                      Space group of crystal =    38: Amm2, A 2 -2

             Set iprint > 1 for details on symmetry rotations/translations

                         Centre of mass is constrained
             Set iprint > 1 for details of linear ionic constraints

                         Number of cell constraints= 3
                         Cell constraints are:  1 1 3 0 0 6

                         External pressure/stress (GPa)
                          0.00000   0.00000   0.00000
                                    0.00000   0.00000
                                              0.00000
 Restarting Phonon calculation:  Dynamical matrices from supercells 1 to       6 recovered from .check file.
 %%%%%%%%%%%%%%%%%%%%%%%%%%%%%%%%%%%%%%%%%%%%%%%%%%%%%%%%%%%%%%%%%%%%%%%%%%%%%%%%%%%%%%%%%%%%%%%%%%%%%%%%%%%%%%%%%%%
            Force Constant matrix
 Ion XYZ  L          part  (eV/A**2)
 Supercell   1 at (0,0,0)        0.000 A                             
   1   1          7.848470         -0.000000          0.000000         -0.412675         -0.316727          0.000000
                 -0.511317         -0.334497         -0.921429         -0.508762          1.114471          0.000000
                 -0.002996          0.010855         -0.010684         -1.703744         -0.255975          0.000000
                 -0.121284          0.049158          0.078381          0.072179          0.000000         -0.000000
   1   2         -0.000000          6.969128          0.000000         -0.964092         -1.153152          0.000000
                 -0.337970         -0.063053         -0.514387          0.598044         -1.481784          0.000000
                 -0.002231         -0.003634          0.044118          0.334344         -0.049828          0.000000
                  0.049159         -0.018825         -0.018063          0.000000         -0.461604          0.519736
   1   3          0.000000          0.000000          7.214731          0.000000          0.000000         -0.054103
                 -0.872672         -0.458153         -1.255372          0.000000          0.000000          0.034884
                 -0.019505          0.025035         -0.004701          0.000000          0.000000         -0.033390
                 -0.055773          0.037377          0.011348         -0.000000          0.461266         -0.822523
   2   1         -0.412675         -0.964092          0.000000          7.040543         -0.223793          0.000000
                 -0.001062          0.055482         -0.103738         -0.000295         -0.036777          0.000000
                 -0.008548         -0.005051          0.037285         -0.432608          1.196997          0.000000
                 -0.017349          0.012015         -0.046364         -0.005654         -0.090451          0.007844
   2   2         -0.316727         -1.153152          0.000000         -0.223793          7.633019          0.000000
                  0.011358         -0.704122          0.874065          0.003857         -0.233863          0.000000
                 -0.016771         -0.015670         -0.012788         -0.096558         -1.143526          0.000000
                  0.058925         -0.018688          0.082982         -0.055676         -0.161795          0.091807
   2   3          0.000000          0.000000         -0.054103          0.000000          0.000000          6.379552
                 -0.089355          1.016832         -0.792984          0.000000          0.000000         -0.011801
                 -0.033879          0.005528         -0.019841          0.000000          0.000000         -0.342844
                 -0.046372          0.076747          0.053275          0.107608          0.088216          0.006234
   3   1         -0.511317         -0.337970         -0.872672         -0.001062          0.011358         -0.089355
                  6.523395         -0.288226          0.000000          0.123187          0.016917         -0.042644
                 -0.028238         -0.042892          0.000000         -0.558576          0.307856          0.900596
                 -0.375231         -0.149364          0.000000         -0.418229          0.457541          0.000000
   3   2         -0.334497         -0.063053         -0.458153          0.055482         -0.704122          1.016832
                 -0.288226          4.697181          0.000000         -0.024686          0.332705          0.111243
                  0.048457         -0.156925          0.000000          0.376701         -0.214193         -0.597666
                  1.003589         -0.639779          0.000000         -0.642090         -0.631099          0.000000
   3   3         -0.921429         -0.514387         -1.255372         -0.103738          0.874065         -0.792984
                  0.000000          0.000000          7.565451         -0.107107          0.321081          0.209271
                  0.000000          0.000000         -0.010712          0.873969         -0.470987         -0.815408
                  0.000000          0.000000         -0.034412          0.000000          0.000000         -0.513589
   4   1         -0.508762          0.598044          0.000000         -0.000295          0.003857          0.000000
                  0.123187         -0.024686         -0.107107          7.040543          0.223793          0.000000
                 -0.001062         -0.055482          0.103738         -0.679310         -0.394459          0.000000
                 -0.596119         -0.401333         -0.821933         -0.427765          0.252413          0.303934
   4   2          1.114471         -1.481784          0.000000         -0.036777         -0.233863          0.000000
                  0.016917          0.332705          0.321081          0.223793          7.633019          0.000000
                 -0.011358         -0.704122          0.874065         -1.069016         -1.426953          0.000000
                 -0.447374         -0.129980         -0.553580          0.246315         -0.158660         -0.264784
   4   3          0.000000          0.000000          0.034884          0.000000          0.000000         -0.011801
                 -0.042644          0.111243          0.209271          0.000000          0.000000          6.379552
                  0.089355          1.016832         -0.792984          0.000000          0.000000         -0.183811
                 -0.714522         -0.401567         -0.821358          0.552475         -0.251042         -0.738178
   5   1         -0.002996         -0.002231         -0.019505         -0.008548         -0.016771         -0.033879
                 -0.028238          0.048457          0.000000         -0.001062         -0.011358          0.089355
                  6.523395          0.288226          0.000000         -0.019260         -0.027452          0.056684
                 -0.154091         -0.872513          0.000000         -0.329005          0.736993          0.000000
   5   2          0.010855         -0.003634          0.025035         -0.005051         -0.015670          0.005528
                 -0.042892         -0.156925          0.000000         -0.055482         -0.704122          1.016832
                  0.288226          4.697181          0.000000         -0.020695         -0.053772          0.074594
                  0.183626         -0.664677          0.000000         -0.290471         -0.614262          0.000000
   5   3         -0.010684          0.044118         -0.004701          0.037285         -0.012788         -0.019841
                  0.000000          0.000000         -0.010712          0.103738          0.874065         -0.792984
                  0.000000          0.000000          7.565451          0.024767          0.044400         -0.010569
                  0.000000          0.000000          0.043139          0.000000          0.000000         -0.060446
   6   1         -1.703744          0.334344          0.000000         -0.432608         -0.096558          0.000000
                 -0.558576          0.376701          0.873969         -0.679310         -1.069016          0.000000
                 -0.019260         -0.020695          0.024767          7.492630         -0.000000          0.000000
                  0.179662         -0.000000          0.000000          0.357587          0.136557         -0.372194
   6   2         -0.255975         -0.049828          0.000000          1.196997         -1.143526          0.000000
                  0.307856         -0.214193         -0.470987         -0.394459         -1.426953          0.000000
                 -0.027452         -0.053772          0.044400         -0.000000          7.544972          0.000000
                  0.000000         -0.885523          1.038289          0.032856          0.201416         -0.033053
   6   3          0.000000          0.000000         -0.033390          0.000000          0.000000         -0.342844
                  0.900596         -0.597666         -0.815408          0.000000          0.000000         -0.183811
                  0.056684          0.074594         -0.010569          0.000000          0.000000          7.211059
                  0.000000          0.906604         -0.841589         -0.144016         -0.037791          0.247370
   7   1         -0.121284          0.049159         -0.055773         -0.017349          0.058925         -0.046372
                 -0.375231          1.003589          0.000000         -0.596119         -0.447374         -0.714522
                 -0.154091          0.183626          0.000000          0.179662          0.000000          0.000000
                  4.923735         -0.000000          0.000000          0.181716         -0.484214          0.000000
   7   2          0.049158         -0.018825          0.037377          0.012015         -0.018688          0.076747
                 -0.149364         -0.639779          0.000000         -0.401333         -0.129980         -0.401567
                 -0.872513         -0.664677          0.000000         -0.000000         -0.885523          0.906604
                 -0.000000          6.782002          0.000000          0.746540         -0.144604          0.000000
   7   3          0.078381         -0.018063          0.011348         -0.046364          0.082982          0.053275
                  0.000000          0.000000         -0.034412         -0.821933         -0.553580         -0.821358
                  0.000000          0.000000          0.043139          0.000000          1.038289         -0.841589
                  0.000000          0.000000          6.323019          0.000000          0.000000         -0.013081
   8   1          0.072179          0.000000         -0.000000         -0.005654         -0.055676          0.107608
                 -0.418229         -0.642090          0.000000         -0.427765          0.246315          0.552475
                 -0.329005         -0.290471          0.000000          0.357587          0.032856         -0.144016
                  0.181716          0.746540          0.000000          2.358496         -0.000000          0.000000
   8   2          0.000000         -0.461604          0.461266         -0.090451         -0.161795          0.088216
                  0.457541         -0.631099          0.000000          0.252413         -0.158660         -0.251042
                  0.736993         -0.614262          0.000000          0.136557          0.201416         -0.037791
                 -0.484214         -0.144604          0.000000         -0.000000          4.252405          0.000000
   8   3         -0.000000          0.519736         -0.822523          0.007844          0.091807          0.006234
                  0.000000          0.000000         -0.513589          0.303934         -0.264784         -0.738178
                  0.000000          0.000000         -0.060446         -0.372194         -0.033053          0.247370
                  0.000000          0.000000         -0.013081          0.000000          0.000000          5.944112

 Supercell   2 at (1,0,0)        5.765 A                             
   1   1          0.000972          0.019580          0.000000         -0.089512          0.109964          0.000000
                  0.012620         -0.043777         -0.042074         -0.412675          0.316727          0.000000
                 -0.511317          0.334497          0.921429          0.087135          0.000000          0.000000
                 -0.011289         -0.000000          0.000000         -0.002488          0.015316          0.032981
   1   2          0.019580         -0.014058          0.000000          0.085882          0.036953          0.000000
                 -0.045170          0.055706         -0.024869          0.964092         -1.153152          0.000000
                  0.337970         -0.063053         -0.514387          0.000000         -0.148654          0.000000
                 -0.000000         -0.059808          0.142994          0.025115         -0.010132         -0.007143
   1   3          0.000000          0.000000          0.016709          0.000000          0.000000          0.003689
                 -0.015254         -0.006872         -0.013447          0.000000          0.000000         -0.054103
                  0.872672         -0.458153         -1.255372          0.000000          0.000000         -0.017119
                 -0.000000         -0.039335          0.002060          0.021584         -0.029733         -0.000570
   2   1         -0.089512          0.085882          0.000000         -0.045656          0.108662          0.000000
                  0.000017          0.036470          0.058788         -1.216050          0.291540          0.000000
                  0.257181          0.062826         -0.259624         -0.679310          0.394459          0.000000
                 -0.596119          0.401333          0.821933         -0.067517         -0.010770          0.088381
   2   2          0.109964          0.036953          0.000000          0.108662         -0.229321          0.000000
                  0.021159         -0.042530         -0.047548         -0.291540         -0.206810          0.000000
                  0.130382          0.163860         -0.247368          1.069016         -1.426953          0.000000
                  0.447374         -0.129980         -0.553580         -0.070323          0.009192         -0.009062
   2   3          0.000000          0.000000          0.003689          0.000000          0.000000         -0.015256
                  0.049229         -0.099557         -0.019168          0.000000          0.000000         -0.230704
                 -0.100468         -0.079649          0.232538          0.000000          0.000000         -0.183811
                  0.714522         -0.401567         -0.821358          0.089898         -0.025949         -0.024232
   3   1          0.012620         -0.045170         -0.015254          0.000017          0.021159          0.049229
                 -0.069073          0.268632          0.000000          0.257181         -0.130382          0.100468
                 -1.261504         -0.470263          0.000000         -0.019260          0.027452         -0.056684
                 -0.154091          0.872513          0.000000         -0.111029          0.091386          0.000000
   3   2         -0.043777          0.055706         -0.006872          0.036470         -0.042530         -0.099557
                  0.268632         -0.408435          0.000000         -0.062826          0.163860         -0.079649
                  0.470263         -0.259562          0.000000          0.020695         -0.053772          0.074594
                 -0.183626         -0.664677          0.000000          0.015489         -0.090775          0.000000
   3   3         -0.042074         -0.024869         -0.013447          0.058788         -0.047548         -0.019168
                  0.000000          0.000000         -0.012023          0.259624         -0.247368          0.232538
                  0.000000          0.000000         -0.404735         -0.024767          0.044400         -0.010569
                  0.000000          0.000000          0.043139          0.000000          0.000000         -0.035005
   4   1         -0.412675          0.964092          0.000000         -1.216050         -0.291540          0.000000
                  0.257181         -0.062826          0.259624          0.102500         -0.150329          0.000000
                 -0.066088          0.083877          0.087651         -0.153846          0.073321          0.000000
                 -0.010660         -0.001948         -0.036995         -0.005654          0.090451         -0.007844
   4   2          0.316727         -1.153152          0.000000          0.291540         -0.206810          0.000000
                 -0.130382          0.163860         -0.247368         -0.150329          0.279312          0.000000
                  0.152638         -0.137949         -0.116437          0.089318         -0.013825          0.000000
                  0.030846         -0.012429          0.023709          0.055676         -0.161795          0.091807
   4   3          0.000000          0.000000         -0.054103          0.000000          0.000000         -0.230704
                  0.100468         -0.079649          0.232538          0.000000          0.000000         -0.102094
                  0.072579         -0.144711          0.019424          0.000000          0.000000         -0.033879
                  0.009307         -0.009349         -0.090296         -0.107608          0.088216          0.006234
   5   1         -0.511317          0.337970          0.872672          0.257181          0.130382         -0.100468
                 -1.261504          0.470263          0.000000         -0.066088          0.152638          0.072579
                 -0.007444          0.125677          0.000000         -0.207940          0.002228          0.153049
                 -0.119101          0.085283          0.000000         -0.418229         -0.457541          0.000000
   5   2          0.334497         -0.063053         -0.458153          0.062826          0.163860         -0.079649
                 -0.470263         -0.259562          0.000000          0.083877         -0.137949         -0.144711
                  0.125677          0.161470          0.000000          0.060838          0.043039          0.017611
                  0.094038         -0.021416          0.000000          0.642090         -0.631099          0.000000
   5   3          0.921429         -0.514387         -1.255372         -0.259624         -0.247368          0.232538
                  0.000000          0.000000         -0.404735          0.087651         -0.116437          0.019424
                  0.000000          0.000000          0.003509          0.152989         -0.023443          0.029019
                  0.000000          0.000000          0.001859          0.000000          0.000000         -0.513589
   6   1          0.087135          0.000000          0.000000         -0.679310          1.069016          0.000000
                 -0.019260          0.020695         -0.024767         -0.153846          0.089318          0.000000
                 -0.207940          0.060838          0.152989         -0.048641          0.065052          0.000000
                  0.021169          0.037257          0.014020         -0.055467         -0.000000         -0.000000
   6   2          0.000000         -0.148654          0.000000          0.394459         -1.426953          0.000000
                  0.027452         -0.053772          0.044400          0.073321         -0.013825          0.000000
                  0.002228          0.043039         -0.023443          0.065052         -0.087583          0.000000
                 -0.001139         -0.068487         -0.071754         -0.000000         -0.002610          0.038640
   6   3          0.000000          0.000000         -0.017119          0.000000          0.000000         -0.183811
                 -0.056684          0.074594         -0.010569          0.000000          0.000000         -0.033879
                  0.153049          0.017611          0.029019          0.000000          0.000000         -0.014356
                  0.064890         -0.085650          0.026402         -0.000000         -0.020739          0.010725
   7   1         -0.011289         -0.000000         -0.000000         -0.596119          0.447374          0.714522
                 -0.154091         -0.183626          0.000000         -0.010660          0.030846          0.009307
                 -0.119101          0.094038          0.000000          0.021169         -0.001139          0.064890
                 -0.080411          0.233829          0.000000          0.055595         -0.000000          0.000000
   7   2         -0.000000         -0.059808         -0.039335          0.401333         -0.129980         -0.401567
                  0.872513         -0.664677          0.000000         -0.001948         -0.012429         -0.009349
                  0.085283         -0.021416          0.000000          0.037257         -0.068487         -0.085650
                  0.233829         -0.287255          0.000000          0.000000         -0.275264          0.000000
   7   3          0.000000          0.142994          0.002060          0.821933         -0.553580         -0.821358
                  0.000000          0.000000          0.043139         -0.036995          0.023709         -0.090296
                  0.000000          0.000000          0.001859          0.014020         -0.071754          0.026402
                  0.000000          0.000000          0.012469          0.000000          0.000000         -0.054204
   8   1         -0.002488          0.025115          0.021584         -0.067517         -0.070323          0.089898
                 -0.111029          0.015489          0.000000         -0.005654          0.055676         -0.107608
                 -0.418229          0.642090          0.000000         -0.055467         -0.000000         -0.000000
                  0.055595          0.000000          0.000000          0.277294          0.004994          0.000000
   8   2          0.015316         -0.010132         -0.029733         -0.010770          0.009192         -0.025949
                  0.091386         -0.090775          0.000000          0.090451         -0.161795          0.088216
                 -0.457541         -0.631099          0.000000         -0.000000         -0.002610         -0.020739
                 -0.000000         -0.275264          0.000000          0.004994          0.091612          0.000000
   8   3          0.032981         -0.007143         -0.000570          0.088381         -0.009062         -0.024232
                  0.000000          0.000000         -0.035005         -0.007844          0.091807          0.006234
                  0.000000          0.000000         -0.513589         -0.000000          0.038640          0.010725
                  0.000000          0.000000         -0.054204          0.000000          0.000000         -0.161338

 Supercell   3 at (0,1,0)        5.765 A                             
   1   1          0.000972         -0.019580          0.000000         -0.508762         -1.114471          0.000000
                 -0.002996         -0.010855          0.010684         -0.064534         -0.037322          0.000000
                 -0.003213          0.000369         -0.044201         -0.016619          0.000000          0.000000
                 -0.022732          0.000000         -0.000000         -0.002488         -0.015316         -0.032981
   1   2         -0.019580         -0.014058          0.000000         -0.598044         -1.481784          0.000000
                  0.002231         -0.003634          0.044118         -0.012373         -0.011566          0.000000
                  0.000066          0.003600         -0.008634          0.000000         -0.060274          0.000000
                  0.000000         -0.005841         -0.008983         -0.025115         -0.010132         -0.007143
   1   3          0.000000          0.000000          0.016709          0.000000          0.000000          0.034884
                  0.019505          0.025035         -0.004701          0.000000          0.000000          0.020042
                 -0.047877         -0.003166         -0.007236          0.000000          0.000000          0.031968
                  0.000000          0.000182          0.001700         -0.021584         -0.029733         -0.000570
   2   1         -0.508762         -0.598044          0.000000          0.102500          0.150329          0.000000
                 -0.066088         -0.083877         -0.087651         -1.720610         -0.696333          0.000000
                  0.169306         -0.045565          0.089107         -0.116478         -0.053996          0.000000
                 -0.069222          0.058744         -0.114632         -0.427765         -0.252413         -0.303934
   2   2         -1.114471         -1.481784          0.000000          0.150329          0.279312          0.000000
                 -0.152638         -0.137949         -0.116437          0.696333         -0.019847          0.000000
                 -0.075302          0.082333         -0.082937         -0.095186         -0.051221          0.000000
                  0.020516          0.033794          0.005364         -0.246315         -0.158660         -0.264784
   2   3          0.000000          0.000000          0.034884          0.000000          0.000000         -0.102094
                 -0.072579         -0.144711          0.019424          0.000000          0.000000         -0.281353
                  0.115084         -0.080705          0.152668          0.000000          0.000000         -0.024455
                 -0.112092         -0.000537          0.058382         -0.552475         -0.251042         -0.738178
   3   1         -0.002996          0.002231          0.019505         -0.066088         -0.152638         -0.072579
                 -0.007444         -0.125677          0.000000          0.169306          0.075302         -0.115084
                 -1.605979          0.542808          0.000000          0.016796          0.045402          0.010526
                 -0.065426          0.060714          0.000000         -0.329005         -0.736993          0.000000
   3   2         -0.010855         -0.003634          0.025035         -0.083877         -0.137949         -0.144711
                 -0.125677          0.161470          0.000000          0.045565          0.082333         -0.080705
                 -0.542808         -0.016894          0.000000          0.013670          0.106265         -0.013194
                  0.020856         -0.059980          0.000000          0.290471         -0.614262          0.000000
   3   3          0.010684          0.044118         -0.004701         -0.087651         -0.116437          0.019424
                  0.000000          0.000000          0.003509         -0.089107         -0.082937          0.152668
                  0.000000          0.000000         -0.023477          0.032575         -0.044309         -0.043865
                  0.000000          0.000000         -0.067642          0.000000          0.000000         -0.060446
   4   1         -0.064534         -0.012373          0.000000         -1.720610          0.696333          0.000000
                  0.169306          0.045565         -0.089107         -0.045656         -0.108662          0.000000
                  0.000017         -0.036470         -0.058788         -0.432608         -1.196997          0.000000
                 -0.017349         -0.012015          0.046364          0.031052          0.031203          0.071810
   4   2         -0.037322         -0.011566          0.000000         -0.696333         -0.019847          0.000000
                  0.075302          0.082333         -0.082937         -0.108662         -0.229321          0.000000
                 -0.021159         -0.042530         -0.047548          0.096558         -1.143526          0.000000
                 -0.058925         -0.018688          0.082982          0.090849          0.120463         -0.004776
   4   3          0.000000          0.000000          0.020042          0.000000          0.000000         -0.281353
                 -0.115084         -0.080705          0.152668          0.000000          0.000000         -0.015256
                 -0.049229         -0.099557         -0.019168          0.000000          0.000000         -0.342844
                  0.046372          0.076747          0.053275          0.021902          0.000337         -0.009073
   5   1         -0.003213          0.000066         -0.047877          0.169306         -0.075302          0.115084
                 -1.605979         -0.542808          0.000000          0.000017         -0.021159         -0.049229
                 -0.069073         -0.268632          0.000000         -0.558576         -0.307856         -0.900596
                 -0.375231          0.149364          0.000000         -0.157067         -0.107222          0.000000
   5   2          0.000369          0.003600         -0.003166         -0.045565          0.082333         -0.080705
                  0.542808         -0.016894          0.000000         -0.036470         -0.042530         -0.099557
                 -0.268632         -0.408435          0.000000         -0.376701         -0.214193         -0.597666
                 -1.003589         -0.639779          0.000000         -0.007106         -0.025381          0.000000
   5   3         -0.044201         -0.008634         -0.007236          0.089107         -0.082937          0.152668
                  0.000000          0.000000         -0.023477         -0.058788         -0.047548         -0.019168
                  0.000000          0.000000         -0.012023         -0.873969         -0.470987         -0.815408
                  0.000000          0.000000         -0.034412          0.000000          0.000000         -0.072839
   6   1         -0.016619          0.000000          0.000000         -0.116478         -0.095186          0.000000
                  0.016796          0.013670          0.032575         -0.432608          0.096558          0.000000
                 -0.558576         -0.376701         -0.873969         -0.048641         -0.065052          0.000000
                  0.021169         -0.037257         -0.014020          0.105352         -0.000000         -0.000000
   6   2          0.000000         -0.060274          0.000000         -0.053996         -0.051221          0.000000
                  0.045402          0.106265         -0.044309         -1.196997         -1.143526          0.000000
                 -0.307856         -0.214193         -0.470987         -0.065052         -0.087583          0.000000
                  0.001139         -0.068487         -0.071754         -0.000000          0.176585          0.053890
   6   3          0.000000          0.000000          0.031968          0.000000          0.000000         -0.024455
                  0.010526         -0.013194         -0.043865          0.000000          0.000000         -0.342844
                 -0.900596         -0.597666         -0.815408          0.000000          0.000000         -0.014356
                 -0.064890         -0.085650          0.026402         -0.000000          0.163510          0.131426
   7   1         -0.022732          0.000000          0.000000         -0.069222          0.020516         -0.112092
                 -0.065426          0.020856          0.000000         -0.017349         -0.058925          0.046372
                 -0.375231         -1.003589          0.000000          0.021169          0.001139         -0.064890
                 -0.080411         -0.233829          0.000000         -0.066073          0.000000          0.000000
   7   2          0.000000         -0.005841          0.000182          0.058744          0.033794         -0.000537
                  0.060714         -0.059980          0.000000         -0.012015         -0.018688          0.076747
                  0.149364         -0.639779          0.000000         -0.037257         -0.068487         -0.085650
                 -0.233829         -0.287255          0.000000         -0.000000         -0.075092          0.000000
   7   3         -0.000000         -0.008983          0.001700         -0.114632          0.005364          0.058382
                  0.000000          0.000000         -0.067642          0.046364          0.082982          0.053275
                  0.000000          0.000000         -0.034412         -0.014020         -0.071754          0.026402
                  0.000000          0.000000          0.012469          0.000000          0.000000         -0.004692
   8   1         -0.002488         -0.025115         -0.021584         -0.427765         -0.246315         -0.552475
                 -0.329005          0.290471          0.000000          0.031052          0.090849          0.021902
                 -0.157067         -0.007106          0.000000          0.105352         -0.000000         -0.000000
                 -0.066073         -0.000000          0.000000          0.277294         -0.004994          0.000000
   8   2         -0.015316         -0.010132         -0.029733         -0.252413         -0.158660         -0.251042
                 -0.736993         -0.614262          0.000000          0.031203          0.120463          0.000337
                 -0.107222         -0.025381          0.000000         -0.000000          0.176585          0.163510
                  0.000000         -0.075092          0.000000         -0.004994          0.091612          0.000000
   8   3         -0.032981         -0.007143         -0.000570         -0.303934         -0.264784         -0.738178
                  0.000000          0.000000         -0.060446          0.071810         -0.004776         -0.009073
                  0.000000          0.000000         -0.072839         -0.000000          0.053890          0.131426
                  0.000000          0.000000         -0.004692          0.000000          0.000000         -0.161338

 Supercell   4 at (1,1,0)        5.765 A                             
   1   1         -0.066359          0.000000          0.000000         -0.064534          0.037322          0.000000
                 -0.003213         -0.000369          0.044201         -0.089512         -0.109964          0.000000
                  0.012620          0.043777          0.042074         -1.703744          0.255975          0.000000
                 -0.121284         -0.049158         -0.078381          0.127139         -0.000000          0.000000
   1   2          0.000000         -0.008868          0.000000          0.012373         -0.011566          0.000000
                 -0.000066          0.003600         -0.008634         -0.085882          0.036953          0.000000
                  0.045170          0.055706         -0.024869         -0.334344         -0.049828          0.000000
                 -0.049159         -0.018825         -0.018063         -0.000000         -0.020650          0.054779
   1   3          0.000000          0.000000          0.002517          0.000000          0.000000          0.020042
                  0.047877         -0.003166         -0.007236          0.000000          0.000000          0.003689
                  0.015254         -0.006872         -0.013447          0.000000          0.000000         -0.033390
                  0.055773          0.037377          0.011348          0.000000          0.002103         -0.035995
   2   1         -0.064534          0.012373          0.000000         -0.247316          0.023004          0.000000
                  0.117573         -0.010406         -0.015446         -0.000295         -0.003857          0.000000
                  0.123187          0.024686          0.107107         -0.153846         -0.073321          0.000000
                 -0.010660          0.001948          0.036995          0.031052         -0.031203         -0.071810
   2   2          0.037322         -0.011566          0.000000          0.023004         -0.050631          0.000000
                 -0.002276         -0.002960          0.043063          0.036777         -0.233863          0.000000
                 -0.016917          0.332705          0.321081         -0.089318         -0.013825          0.000000
                 -0.030846         -0.012429          0.023709         -0.090849          0.120463         -0.004776
   2   3          0.000000          0.000000          0.020042          0.000000          0.000000          0.002380
                 -0.002664          0.032386         -0.021641          0.000000          0.000000         -0.011801
                  0.042644          0.111243          0.209271          0.000000          0.000000         -0.033879
                 -0.009307         -0.009349         -0.090296         -0.021902          0.000337         -0.009073
   3   1         -0.003213         -0.000066          0.047877          0.117573         -0.002276         -0.002664
                 -0.074865         -0.114875          0.000000         -0.008548          0.016771          0.033879
                 -0.028238         -0.048457          0.000000         -0.207940         -0.002228         -0.153049
                 -0.119101         -0.085283          0.000000         -0.157067          0.107222          0.000000
   3   2         -0.000369          0.003600         -0.003166         -0.010406         -0.002960          0.032386
                 -0.114875          0.107521          0.000000          0.005051         -0.015670          0.005528
                  0.042892         -0.156925          0.000000         -0.060838          0.043039          0.017611
                 -0.094038         -0.021416          0.000000          0.007106         -0.025381          0.000000
   3   3          0.044201         -0.008634         -0.007236         -0.015446          0.043063         -0.021641
                  0.000000          0.000000          0.020678         -0.037285         -0.012788         -0.019841
                  0.000000          0.000000         -0.010712         -0.152989         -0.023443          0.029019
                  0.000000          0.000000          0.001859          0.000000          0.000000         -0.072839
   4   1         -0.089512         -0.085882          0.000000         -0.000295          0.036777          0.000000
                 -0.008548          0.005051         -0.037285         -0.247316         -0.023004          0.000000
                  0.117573          0.010406          0.015446         -0.116478          0.053996          0.000000
                 -0.069222         -0.058744          0.114632         -0.067517          0.010770         -0.088381
   4   2         -0.109964          0.036953          0.000000         -0.003857         -0.233863          0.000000
                  0.016771         -0.015670         -0.012788         -0.023004         -0.050631          0.000000
                  0.002276         -0.002960          0.043063          0.095186         -0.051221          0.000000
                 -0.020516          0.033794          0.005364          0.070323          0.009192         -0.009062
   4   3          0.000000          0.000000          0.003689          0.000000          0.000000         -0.011801
                  0.033879          0.005528         -0.019841          0.000000          0.000000          0.002380
                  0.002664          0.032386         -0.021641          0.000000          0.000000         -0.024455
                  0.112092         -0.000537          0.058382         -0.089898         -0.025949         -0.024232
   5   1          0.012620          0.045170          0.015254          0.123187         -0.016917          0.042644
                 -0.028238          0.042892          0.000000          0.117573          0.002276          0.002664
                 -0.074865          0.114875          0.000000          0.016796         -0.045402         -0.010526
                 -0.065426         -0.060714          0.000000         -0.111029         -0.091386          0.000000
   5   2          0.043777          0.055706         -0.006872          0.024686          0.332705          0.111243
                 -0.048457         -0.156925          0.000000          0.010406         -0.002960          0.032386
                  0.114875          0.107521          0.000000         -0.013670          0.106265         -0.013194
                 -0.020856         -0.059980          0.000000         -0.015489         -0.090775          0.000000
   5   3          0.042074         -0.024869         -0.013447          0.107107          0.321081          0.209271
                  0.000000          0.000000         -0.010712          0.015446          0.043063         -0.021641
                  0.000000          0.000000          0.020678         -0.032575         -0.044309         -0.043865
                  0.000000          0.000000         -0.067642          0.000000          0.000000         -0.035005
   6   1         -1.703744         -0.334344          0.000000         -0.153846         -0.089318          0.000000
                 -0.207940         -0.060838         -0.152989         -0.116478          0.095186          0.000000
                  0.016796         -0.013670         -0.032575          0.335916          0.000000          0.000000
                 -0.078788          0.000000         -0.000000          0.357587         -0.136557          0.372194
   6   2          0.255975         -0.049828          0.000000         -0.073321         -0.013825          0.000000
                 -0.002228          0.043039         -0.023443          0.053996         -0.051221          0.000000
                 -0.045402          0.106265         -0.044309          0.000000         -0.066485          0.000000
                 -0.000000         -0.005466          0.013280         -0.032856          0.201416         -0.033053
   6   3          0.000000          0.000000         -0.033390          0.000000          0.000000         -0.033879
                 -0.153049          0.017611          0.029019          0.000000          0.000000         -0.024455
                 -0.010526         -0.013194         -0.043865          0.000000          0.000000         -0.205342
                 -0.000000          0.009265         -0.067054          0.144016         -0.037791          0.247370
   7   1         -0.121284         -0.049159          0.055773         -0.010660         -0.030846         -0.009307
                 -0.119101         -0.094038          0.000000         -0.069222         -0.020516          0.112092
                 -0.065426         -0.020856          0.000000         -0.078788         -0.000000         -0.000000
                 -0.622837          0.000000          0.000000          0.181716          0.484214          0.000000
   7   2         -0.049158         -0.018825          0.037377          0.001948         -0.012429         -0.009349
                 -0.085283         -0.021416          0.000000         -0.058744          0.033794         -0.000537
                 -0.060714         -0.059980          0.000000          0.000000         -0.005466          0.009265
                  0.000000          0.122132          0.000000         -0.746540         -0.144604          0.000000
   7   3         -0.078381         -0.018063          0.011348          0.036995          0.023709         -0.090296
                  0.000000          0.000000          0.001859          0.114632          0.005364          0.058382
                  0.000000          0.000000         -0.067642         -0.000000          0.013280         -0.067054
                  0.000000          0.000000          0.003190          0.000000          0.000000         -0.013081
   8   1          0.127139         -0.000000          0.000000          0.031052         -0.090849         -0.021902
                 -0.157067          0.007106          0.000000         -0.067517          0.070323         -0.089898
                 -0.111029         -0.015489          0.000000          0.357587         -0.032856          0.144016
                  0.181716         -0.746540          0.000000         -0.853076          0.000000          0.000000
   8   2         -0.000000         -0.020650          0.002103         -0.031203          0.120463          0.000337
                  0.107222         -0.025381          0.000000          0.010770          0.009192         -0.025949
                 -0.091386         -0.090775          0.000000         -0.136557          0.201416         -0.037791
                  0.484214         -0.144604          0.000000          0.000000         -0.094757          0.000000
   8   3          0.000000          0.054779         -0.035995         -0.071810         -0.004776         -0.009073
                  0.000000          0.000000         -0.072839         -0.088381         -0.009062         -0.024232
                  0.000000          0.000000         -0.035005          0.372194         -0.033053          0.247370
                  0.000000          0.000000         -0.013081          0.000000          0.000000          0.023686

 Supercell   5 at (0,0,1)        4.610 A                             
   1   1          0.036038         -0.000000          0.000000         -0.000986         -0.043978          0.000000
                 -0.511317         -0.334497          0.921429          0.009781         -0.016709          0.000000
                 -0.002996          0.010855          0.010684         -0.049275          0.044390          0.000000
                 -0.121284          0.049158         -0.078381          0.072179          0.000000          0.000000
   1   2         -0.000000          0.001984          0.000000          0.032066         -0.021461          0.000000
                 -0.337970         -0.063053          0.514387          0.095084         -0.038789          0.000000
                 -0.002231         -0.003634         -0.044118         -0.041674          0.006463          0.000000
                  0.049159         -0.018825          0.018063          0.000000         -0.461604         -0.519736
   1   3          0.000000          0.000000         -0.289906          0.000000          0.000000         -0.037564
                  0.872672          0.458153         -1.255372          0.000000          0.000000         -0.028202
                  0.019505         -0.025035         -0.004701          0.000000          0.000000         -0.040502
                  0.055773         -0.037377          0.011348          0.000000         -0.461266         -0.822523
   2   1         -0.000986          0.032066          0.000000          0.349392          0.113557          0.000000
                 -0.001062          0.055482          0.103738         -0.039777         -0.036375          0.000000
                 -0.008548         -0.005051         -0.037285         -0.013910          0.018613          0.000000
                 -0.017349          0.012015          0.046364         -0.005654         -0.090451         -0.007844
   2   2         -0.043978         -0.021461          0.000000          0.113557          0.201625          0.000000
                  0.011358         -0.704122         -0.874065          0.003207         -0.022595          0.000000
                 -0.016771         -0.015670          0.012788          0.051816         -0.063604          0.000000
                  0.058925         -0.018688         -0.082982         -0.055676         -0.161795         -0.091807
   2   3          0.000000          0.000000         -0.037564          0.000000          0.000000         -1.505854
                  0.089355         -1.016832         -0.792984          0.000000          0.000000         -0.009629
                  0.033879         -0.005528         -0.019841          0.000000          0.000000          0.015694
                  0.046372         -0.076747          0.053275         -0.107608         -0.088216          0.006234
   3   1         -0.511317         -0.337970          0.872672         -0.001062          0.011358          0.089355
                  0.270279         -0.231982          0.000000          0.123187          0.016917          0.042644
                  0.026525          0.040579          0.000000         -0.558576          0.307856         -0.900596
                 -0.009530          0.204051          0.000000         -0.143582         -0.023615          0.000000
   3   2         -0.334497         -0.063053          0.458153          0.055482         -0.704122         -1.016832
                 -0.231982          0.499766          0.000000         -0.024686          0.332705         -0.111243
                 -0.061753         -0.109182          0.000000          0.376701         -0.214193          0.597666
                 -0.026368         -0.095627          0.000000         -0.029830         -0.046565          0.000000
   3   3          0.921429          0.514387         -1.255372          0.103738         -0.874065         -0.792984
                  0.000000          0.000000         -1.742531          0.107107         -0.321081          0.209271
                  0.000000          0.000000         -0.048521         -0.873969          0.470987         -0.815408
                  0.000000          0.000000          0.076370          0.000000          0.000000          0.065655
   4   1          0.009781          0.095084          0.000000         -0.039777          0.003207          0.000000
                  0.123187         -0.024686          0.107107          0.349392         -0.113557          0.000000
                 -0.001062         -0.055482         -0.103738         -0.041543         -0.077946          0.000000
                 -0.596119         -0.401333          0.821933         -0.427765          0.252413         -0.303934
   4   2         -0.016709         -0.038789          0.000000         -0.036375         -0.022595          0.000000
                  0.016917          0.332705         -0.321081         -0.113557          0.201625          0.000000
                 -0.011358         -0.704122         -0.874065         -0.018289         -0.008944          0.000000
                 -0.447374         -0.129980          0.553580          0.246315         -0.158660          0.264784
   4   3          0.000000          0.000000         -0.028202          0.000000          0.000000         -0.009629
                  0.042644         -0.111243          0.209271          0.000000          0.000000         -1.505854
                 -0.089355         -1.016832         -0.792984          0.000000          0.000000         -0.011826
                  0.714522          0.401567         -0.821358         -0.552475          0.251042         -0.738178
   5   1         -0.002996         -0.002231          0.019505         -0.008548         -0.016771          0.033879
                  0.026525         -0.061753          0.000000         -0.001062         -0.011358         -0.089355
                  0.270279          0.231982          0.000000         -0.019260         -0.027452         -0.056684
                 -0.016639          0.051455          0.000000         -0.089106          0.020102          0.000000
   5   2          0.010855         -0.003634         -0.025035         -0.005051         -0.015670         -0.005528
                  0.040579         -0.109182          0.000000         -0.055482         -0.704122         -1.016832
                  0.231982          0.499766          0.000000         -0.020695         -0.053772         -0.074594
                 -0.158395         -0.096289          0.000000          0.140358         -0.151623          0.000000
   5   3          0.010684         -0.044118         -0.004701         -0.037285          0.012788         -0.019841
                  0.000000          0.000000         -0.048521         -0.103738         -0.874065         -0.792984
                  0.000000          0.000000         -1.742531         -0.024767         -0.044400         -0.010569
                  0.000000          0.000000          0.073285          0.000000          0.000000          0.184345
   6   1         -0.049275         -0.041674          0.000000         -0.013910          0.051816          0.000000
                 -0.558576          0.376701         -0.873969         -0.041543         -0.018289          0.000000
                 -0.019260         -0.020695         -0.024767          0.118858         -0.000000          0.000000
                  0.179662         -0.000000         -0.000000          0.357587          0.136557          0.372194
   6   2          0.044390          0.006463          0.000000          0.018613         -0.063604          0.000000
                  0.307856         -0.214193          0.470987         -0.077946         -0.008944          0.000000
                 -0.027452         -0.053772         -0.044400         -0.000000          0.097309          0.000000
                  0.000000         -0.885523         -1.038289          0.032856          0.201416          0.033053
   6   3          0.000000          0.000000         -0.040502          0.000000          0.000000          0.015694
                 -0.900596          0.597666         -0.815408          0.000000          0.000000         -0.011826
[...]
 +  Rep  Mul |    E   m                                                       +
 +           | --------                                                       +
 + a      10 |    1   1                                                       +
 + b      14 |    1  -1                                                       +
 + -------------------------------------------------------------------------- +
 +  q-pt= 1219 ( -0.500000 -0.500000  0.000000)     0.0001250000              +
 + -------------------------------------------------------------------------- +
 +  Acoustic sum rule correction <   0.010188 THz applied                     +
 +     N      Frequency irrep.                                                + 
 +                 (THz)                                                      + 
 +                                                                            +
 +     1       1.490834   a                                                   + 
 +     2       2.075699   a                                                   + 
 +     3       2.406762   b                                                   + 
 +     4       3.041517   b                                                   + 
 +     5       3.590812   c                                                   + 
 +     6       3.772142   a                                                   + 
 +     7       3.779503   b                                                   + 
 +     8       4.368713   d                                                   + 
 +     9       5.126172   c                                                   + 
 +    10       5.370779   a                                                   + 
 +    11       5.602548   a                                                   + 
 +    12       5.644866   c                                                   + 
 +    13       6.047985   a                                                   + 
 +    14       6.108245   c                                                   + 
 +    15       6.320627   b                                                   + 
 +    16       6.325079   d                                                   + 
 +    17       6.395536   b                                                   + 
 +    18       6.539116   c                                                   + 
 +    19       6.797647   a                                                   + 
 +    20       7.417007   c                                                   + 
 +    21       7.659487   c                                                   + 
 +    22       8.310757   c                                                   + 
 +    23       8.753118   b                                                   + 
 +    24       9.375628   a                                                   + 
 + .......................................................................... +
 +        Character table from group theory analysis of eigenvectors          +
 +                           Point Group =   6, C2v                           +
 + .......................................................................... +
 +  Rep  Mul |    E   2   m   m                                               +
 +           | ----------------                                               +
 + a       8 |    1   1   1   1                                               +
 + b       6 |    1   1  -1  -1                                               +
 + c       8 |    1  -1   1  -1                                               +
 + d       2 |    1  -1  -1   1                                               +
 + -------------------------------------------------------------------------- +
 +  q-pt= 1220 ( -0.500000 -0.500000  0.350000)     0.0002500000              +
 + -------------------------------------------------------------------------- +
 +  Acoustic sum rule correction <   0.002795 THz applied                     +
 +     N      Frequency irrep.                                                + 
 +                 (THz)                                                      + 
 +                                                                            +
 +     1      -2.378574   a                                                   + 
 +     2       3.254751   a                                                   + 
 +     3       3.428749   b                                                   + 
 +     4       3.687632   a                                                   + 
 +     5       3.852854   b                                                   + 
 +     6       4.188918   a                                                   + 
 +     7       4.451202   b                                                   + 
 +     8       4.630155   b                                                   + 
 +     9       4.753563   a                                                   + 
 +    10       5.267840   b                                                   + 
 +    11       5.525046   a                                                   + 
 +    12       5.780628   a                                                   + 
 +    13       5.815007   b                                                   + 
 +    14       6.218789   b                                                   + 
 +    15       6.470294   b                                                   + 
 +    16       6.843305   b                                                   + 
 +    17       7.000979   a                                                   + 
 +    18       7.152269   b                                                   + 
 +    19       7.397892   b                                                   + 
 +    20       7.574363   a                                                   + 
 +    21       7.811475   b                                                   + 
 +    22       8.362524   b                                                   + 
 +    23       8.875419   b                                                   + 
 +    24       9.502147   a                                                   + 
 + .......................................................................... +
 +        Character table from group theory analysis of eigenvectors          +
 +                           Point Group =   6, C2v                           +
 + .......................................................................... +
 +  Rep  Mul |    E   m                                                       +
 +           | --------                                                       +
 + a      10 |    1   1                                                       +
 + b      14 |    1  -1                                                       +
 + -------------------------------------------------------------------------- +
 +  q-pt= 1221 ( -0.500000 -0.500000 -0.500000)     0.0001250000              +
 + -------------------------------------------------------------------------- +
 +  Acoustic sum rule correction <   0.002448 THz applied                     +
 +     N      Frequency irrep.                                                + 
 +                 (THz)                                                      + 
 +                                                                            +
 +     1      -2.756372   a                                                   + 
 +     2       3.365155   b                                                   + 
 +     3       3.453160   a                                                   + 
 +     4       3.943156   a                                                   + 
 +     5       3.954069   b                                                   + 
 +     6       4.215378   a                                                   + 
 +     7       4.373439   a                                                   + 
 +     8       4.548860   b                                                   + 
 +     9       4.640943   b                                                   + 
 +    10       5.274830   b                                                   + 
 +    11       5.421267   a                                                   + 
 +    12       5.610423   a                                                   + 
 +    13       5.830893   b                                                   + 
 +    14       6.508892   b                                                   + 
 +    15       6.552816   b                                                   + 
 +    16       7.082944   b                                                   + 
 +    17       7.280329   b                                                   + 
 +    18       7.317812   a                                                   + 
 +    19       7.535594   b                                                   + 
 +    20       7.666869   a                                                   + 
 +    21       7.791104   b                                                   + 
 +    22       8.395326   b                                                   + 
 +    23       8.852631   b                                                   + 
 +    24       9.567513   a                                                   + 
 + .......................................................................... +
 +        Character table from group theory analysis of eigenvectors          +
 +                           Point Group =   6, C2v                           +
 + .......................................................................... +
 +  Rep  Mul |    E   2   m   m                                               +
 +           | ----------------                                               +
 + a      10 |    1   0   0   1                                               +
 + b      14 |    1   0   0  -1                                               +
 ==============================================================================

 ******************** Symmetrised Forces ********************
 *                                                          *
 *               Cartesian components (eV/A)                *
 * -------------------------------------------------------- *
 *                         x            y            z      *
 *                                                          *
 * Al              1      0.00000      0.01051      0.00000 *
 * Ti              1     -0.00070      0.00190      0.00000 *
 * Ti              2      0.00381     -0.00693      0.00000 *
 * Ti              3      0.00070      0.00190      0.00000 *
 * Ti              4     -0.00381     -0.00693      0.00000 *
 * Ti              5      0.00000     -0.00206      0.00000 *
 * Ti              6      0.00000      0.00030      0.00000 *
 * V               1      0.00000      0.00131      0.00000 *
 *                                                          *
 ************************************************************

 *********** Symmetrised Stress Tensor ***********
 *                                               *
 *          Cartesian components (GPa)           *
 * --------------------------------------------- *
 *             x             y             z     *
 *                                               *
 *  x     -0.206384      0.000000      0.000000  *
 *  y      0.000000      0.190635      0.000000  *
 *  z      0.000000      0.000000      0.016014  *
 *                                               *
 *  Pressure:   -0.0001                          *
 *                                               *
 *************************************************

 Pseudo atomic calculation performed for Al 3s2 3p1

 Converged in 22 iterations to a total energy of -107.1308 eV

 Pseudo atomic calculation performed for Ti 3s2 3p6 3d2 4s2

 Converged in 51 iterations to a total energy of -1587.0236 eV

 Pseudo atomic calculation performed for V 3s2 3p6 3d3 4s2

 Converged in 52 iterations to a total energy of -2065.7874 eV
Charge spilling parameter for spin component 1 = 0.09%

            Orbital Populations       
     Ion    Atom   Orbital             Charge
  -------------------------------------------
     Al     1      S                    0.929
     Al     1      Px                   0.692
     Al     1      Py                   0.678
     Al     1      Pz                   0.698
     Ti     1      S                    2.003
     Ti     1      Px                   2.006
     Ti     1      Py                   2.006
     Ti     1      Pz                   2.005
     Ti     1      S                    0.316
     Ti     1      Dzz                  0.580
     Ti     1      Dzy                  0.491
     Ti     1      Dzx                  0.510
     Ti     1      Dxx-yy               0.588
     Ti     1      Dxy                  0.530
     Ti     1      Px                   0.327
     Ti     1      Py                   0.301
     Ti     1      Pz                   0.340
     Ti     2      S                    2.003
     Ti     2      Px                   2.006
     Ti     2      Py                   2.006
     Ti     2      Pz                   2.006
     Ti     2      S                    0.290
     Ti     2      Dzz                  0.645
     Ti     2      Dzy                  0.476
     Ti     2      Dzx                  0.478
     Ti     2      Dxx-yy               0.551
     Ti     2      Dxy                  0.597
     Ti     2      Px                   0.313
     Ti     2      Py                   0.332
     Ti     2      Pz                   0.281
     Ti     3      S                    2.003
     Ti     3      Px                   2.006
     Ti     3      Py                   2.006
     Ti     3      Pz                   2.005
     Ti     3      S                    0.307
     Ti     3      Dzz                  0.597
     Ti     3      Dzy                  0.490
     Ti     3      Dzx                  0.512
     Ti     3      Dxx-yy               0.589
     Ti     3      Dxy                  0.558
     Ti     3      Px                   0.321
     Ti     3      Py                   0.282
     Ti     3      Pz                   0.349
     Ti     4      S                    2.003
     Ti     4      Px                   2.006
     Ti     4      Py                   2.006
     Ti     4      Pz                   2.006
     Ti     4      S                    0.287
     Ti     4      Dzz                  0.613
     Ti     4      Dzy                  0.480
     Ti     4      Dzx                  0.478
     Ti     4      Dxx-yy               0.561
     Ti     4      Dxy                  0.587
     Ti     4      Px                   0.307
     Ti     4      Py                   0.333
     Ti     4      Pz                   0.280
     Ti     5      S                    2.004
     Ti     5      Px                   2.007
     Ti     5      Py                   2.007
     Ti     5      Pz                   2.006
     Ti     5      S                    0.331
     Ti     5      Dzz                  0.615
     Ti     5      Dzy                  0.496
     Ti     5      Dzx                  0.499
     Ti     5      Dxx-yy               0.527
     Ti     5      Dxy                  0.612
     Ti     5      Px                   0.288
     Ti     5      Py                   0.350
     Ti     5      Pz                   0.322
     Ti     6      S                    2.004
     Ti     6      Px                   2.006
     Ti     6      Py                   2.006
     Ti     6      Pz                   2.006
     Ti     6      S                    0.313
     Ti     6      Dzz                  0.595
     Ti     6      Dzy                  0.498
     Ti     6      Dzx                  0.471
     Ti     6      Dxx-yy               0.578
     Ti     6      Dxy                  0.519
     Ti     6      Px                   0.356
     Ti     6      Py                   0.331
     Ti     6      Pz                   0.286
      V     1      S                    2.001
      V     1      Px                   2.003
      V     1      Py                   2.003
      V     1      Pz                   2.003
      V     1      Dzz                  0.909
      V     1      Dzy                  0.599
      V     1      Dzx                  0.669
      V     1      Dxx-yy               0.801
      V     1      Dxy                  0.771
      V     1      S                    0.344
      V     1      Px                   0.322
      V     1      Py                   0.300
      V     1      Pz                   0.289
  -------------------------------------------
                           Total:      88.000
  -------------------------------------------

     Atomic Populations (Mulliken)
     -----------------------------
Species          Ion     s       p       d       f      Total   Charge (e)
==========================================================================
  Al              1     0.929   2.068   0.000   0.000   2.996     0.004
  Ti              1     2.314   6.977   2.722   0.000  12.013    -0.013
  Ti              2     2.292   6.941   2.733   0.000  11.966     0.034
  Ti              3     2.314   6.977   2.722   0.000  12.013    -0.013
  Ti              4     2.292   6.941   2.733   0.000  11.966     0.034
  Ti              5     2.335   6.980   2.749   0.000  12.063    -0.063
  Ti              6     2.317   6.990   2.661   0.000  11.968     0.032
  V               1     2.345   6.921   3.749   0.000  13.015    -0.015
==========================================================================

                 Bond                   Population      Length (A)
======================================================================
              Ti 3 -- V 1                    0.10        2.82471
              Ti 1 -- V 1                    0.10        2.82471
              Ti 1 -- Ti 3                   0.15        2.82494
              Al 1 -- Ti 4                   0.34        2.82831
              Al 1 -- Ti 2                   0.34        2.82831
              Ti 4 -- V 1                    0.24        2.83578
              Ti 2 -- V 1                    0.24        2.83578
              Al 1 -- V 1                    0.35        2.83709
              Ti 5 -- Ti 6                   0.02        2.83874
              Ti 3 -- Ti 6                   0.01        2.84345
              Ti 1 -- Ti 6                   0.01        2.84345
              Ti 4 -- Ti 5                  -0.09        2.84434
              Ti 2 -- Ti 5                  -0.09        2.84434
              Ti 3 -- Ti 5                   0.15        2.84761
              Ti 1 -- Ti 5                   0.15        2.84761
              Al 1 -- Ti 1                   0.44        2.84802
              Al 1 -- Ti 3                   0.44        2.84802
              Ti 2 -- Ti 4                   0.20        2.86996
              Ti 2 -- Ti 6                   0.21        2.87396
              Ti 4 -- Ti 6                   0.21        2.87396
              Ti 3 -- Ti 4                  -0.15        2.88068
              Ti 1 -- Ti 2                  -0.15        2.88068
              Al 1 -- Ti 5                   0.52        2.88254
              Ti 6 -- V 1                    0.31        2.88257
======================================================================


Writing analysis data to ti64_hcp_phonon.castep_bin

Writing model to ti64_hcp_phonon.check
 
 A BibTeX formatted list of references used in this run has been written to 
 ti64_hcp_phonon.bib
 
Initialisation time =     21.97 s
Calculation time    =      5.04 s
Finalisation time   =      4.40 s
Total time          =     31.41 s
Peak Memory Use     = 1705552 kB
 
Overall parallel efficiency rating: Terrible (30%)
 
Data was distributed by:-
k-point (32-way); efficiency rating: Terrible (31%)
 
Parallel notes:
1) Calculation only took 27.0 s, so efficiency estimates may be inaccurate.
