 +-------------------------------------------------+
 |                                                 |
 |      CCC   AA    SSS  TTTTT  EEEEE  PPPP        |
 |     C     A  A  S       T    E      P   P       |
 |     C     AAAA   SS     T    EEE    PPPP        |
 |     C     A  A     S    T    E      P           |
 |      CCC  A  A  SSS     T    EEEEE  P           |
 |                                                 |
 +-------------------------------------------------+
 |                                                 |
 | Welcome to Academic Release CASTEP version 24.1 |
 | Ab Initio Total Energy Program                  |
 |                                                 |
 | Authors:                                        |
 | M. Segall, M. Probert, C. Pickard, P. Hasnip,   |
 | S. Clark, K. Refson, J. R. Yates,               |
 | A. Bartok-Partay, M. Payne                      |
 |                                                 |
 | Contributors:                                   |
 | P. Lindan, P. Haynes, J. White, V. Milman,      |
 | N. Govind, M. Gibson, P. Tulip, V. Cocula,      |
 | B. Montanari, D. Quigley, M. Glover,            |
 | L. Bernasconi, A. Perlov, M. Plummer,           |
 | E. McNellis, J. Meyer, J. Gale, D. Jochym       |
 | J. Aarons, B. Walker, R. Gillen, D. Jones       |
 | T. Green, I. J. Bush, C. J. Armstrong,          |
 | E. J. Higgins, E. L. Brown, M. S. McFly,        |
 | J. Wilkins, B-C. Shih, P. J. P. Byrne,          |
 | R. J. Maurer, J. C. Womack, J. Dziedzic,        |
 | L. LeBlanc, T. K. Stenczel, J. Kermode,         |
 | S. Sturniolo, B. Shi, B. Durham, M. Evans,      |
 | M. J. Smith, A. Tamerus, Z. Hawkhead,           |
 | V. Ravindran, T. Hollins, S. A. Joyce,          |
 | R. T. Strong, A. M. Reilly                      |
 |                                                 |
 | Copyright (c) 2000 - 2023                       |
 |                                                 |
 |     Distributed under license from Cambridge    |
 |     Enterprise for academic use only.           |
 |                                                 |
 | Please cite                                     |
 |                                                 |
 |     "First principles methods using CASTEP"     |
 |                                                 |
 |         Zeitschrift fuer Kristallographie       |
 |           220(5-6) pp. 567-570 (2005)           |
 |                                                 |
 | S. J. Clark, M. D. Segall, C. J. Pickard,       |
 | P. J. Hasnip, M. J. Probert, K. Refson,         |
 | M. C. Payne                                     |
 |                                                 |
 |       in all publications arising from          |
 |              your use of CASTEP                 |
 |                                                 |
 +-------------------------------------------------+
 |                                                 |
 |              http://www.castep.org              |
 |                                                 |
 +-------------------------------------------------+



 Compiled for linux_x86_64_gfortran10 on Tue, 02 May 2023 15:31:46 +0100
 from code version db08e394c+  default  Mon May 1 16:40:39 2023 +0100
 Compiler: GNU Fortran 10.2.0; Optimisation: fast
 Comms   : Open MPI v4.0.5
 MATHLIBS: openblas (LAPACK version 3.9.0)
 FFT Lib : fftw3 version fftw-3.3.8-sse2-avx-avx2-avx2_128
 Fundamental constants values: CODATA 2018

 Run started: Wed, 20 Mar 2024 09:49:23 +0000
 +-------------------------------------------------+
 |                                                 |
 |  D D D D    F F F F F  P P P P     T T T T T    |
 |  D       D  F          P       P       T        |
 |  D       D  F F F F    P P P P         T        |
 |  D       D  F          P               T        |
 |  D D D D    F          P               T        |
 |                                                 |
 +-------------------------------------------------+
 |                                                 |
 | Welcome to Castep Linear Response (DFPT)        |
 |                                                 |
 | Copyright (c) 2006 - 2023                       |
 |                                                 |
 | Please cite the following publications in all   |
 | work arising from your use of CASTEP LR.        |
 |                                                 |
 | K. Refson, S. J. Clark and P. R. Tulip          |
 | Variational density functional perturbation     |
 | theory for dielectrics and lattice dynamics     |
 | Phys. Rev. B 73(15), 155114 (2006)              |
 +-------------------------------------------------+


 Atomic calculation performed for Al: 1s2 2s2 2p6 3s2 3p1

 Converged in 54 iterations to an ae energy of -6603.783 eV

   ============================================================                
   | Pseudopotential Report - Date of generation 20-03-2024   |                
   ------------------------------------------------------------                
   | Element: Al Ionic charge:  3.00 Level of theory: PBE     |                
   | Atomic Solver: Koelling-Harmon                           |                
   |                                                          |                
   |               Reference Electronic Structure             |                
   |         Orbital         Occupation         Energy        |                
   |            3s              2.000           -0.285        |                
   |            3p              1.000           -0.100        |                
   |                                                          |                
   |                 Pseudopotential Definition               |                
   |        Beta     l      e      Rc     scheme   norm       |                
   |          1      0   -0.285   2.192     qc      0         |                
   |          2      0    0.250   2.192     qc      0         |                
   |          3      1   -0.100   2.192     qc      0         |                
   |          4      1    0.250   2.192     qc      0         |                
   |          5      2    0.000   2.000     qc      0         |                
   |          6      2    0.250   2.000     qc      0         |                
   |         loc     3    0.000   2.192     pn      0         |                
   |                                                          |                
   | Augmentation charge Rinner = 1.398                       |                
   | Partial core correction Rc = 1.398                       |                
   ------------------------------------------------------------                
   | "3|2.2|2.2|1.4|4|5|5|30:31:32U2U2"                       |                
   ------------------------------------------------------------                
   |      Author: Chris J. Pickard, Cambridge University      |                
   ============================================================                

 Atomic calculation performed for Ti: 1s2 2s2 2p6 3s2 3p6 3d2 4s2

 Converged in 79 iterations to an ae energy of -23226.658 eV

   ============================================================                
   | Pseudopotential Report - Date of generation 20-03-2024   |                
   ------------------------------------------------------------                
   | Element: Ti Ionic charge: 12.00 Level of theory: PBE     |                
   | Atomic Solver: Koelling-Harmon                           |                
   |                                                          |                
   |               Reference Electronic Structure             |                
   |         Orbital         Occupation         Energy        |                
   |            3s              2.000           -2.302        |                
   |            3p              6.000           -1.428        |                
   |            4s              2.000           -0.164        |                
   |            3d              2.000           -0.157        |                
   |                                                          |                
   |                 Pseudopotential Definition               |                
   |        Beta     l      e      Rc     scheme   norm       |                
   |          1      0   -2.302   1.793     qc      0         |                
   |          2      0   -0.164   1.793     qc      0         |                
   |          3      0    0.250   1.793     qc      0         |                
   |          4      1   -1.428   1.793     qc      0         |                
   |          5      1    0.250   1.793     qc      0         |                
   |          6      2   -0.157   1.793     qc      0         |                
   |          7      2    0.250   1.793     qc      0         |                
   |         loc     3    0.000   1.793     pn      0         |                
   |                                                          |                
   | Augmentation charge Rinner = 1.263                       |                
   | Partial core correction Rc = 1.263                       |                
   ------------------------------------------------------------                
   | "3|1.8|9|10|11|30U:40:31:32(qc=5.5)"                     |                
   ------------------------------------------------------------                
   |      Author: Chris J. Pickard, Cambridge University      |                
   ============================================================                

 Atomic calculation performed for V: 1s2 2s2 2p6 3s2 3p6 3d3 4s2

 Converged in 81 iterations to an ae energy of -25823.733 eV

   ============================================================                
   | Pseudopotential Report - Date of generation 20-03-2024   |                
   ------------------------------------------------------------                
   | Element: V Ionic charge: 13.00 Level of theory: PBE      |                
   | Atomic Solver: Koelling-Harmon                           |                
   |                                                          |                
   |               Reference Electronic Structure             |                
   |         Orbital         Occupation         Energy        |                
   |            3s              2.000           -2.581        |                
   |            3p              6.000           -1.618        |                
   |            3d              3.000           -0.190        |                
   |            4s              2.000           -0.173        |                
   |                                                          |                
   |                 Pseudopotential Definition               |                
   |        Beta     l      e      Rc     scheme   norm       |                
   |          1      0   -2.581   1.803     qc      0         |                
   |          2      0   -0.173   1.803     qc      0         |                
   |          3      0    0.250   1.803     qc      0         |                
   |          4      1   -1.618   1.803     qc      0         |                
   |          5      1    0.250   1.803     qc      0         |                
   |          6      2   -0.190   1.803     qc      0         |                
   |          7      2    0.250   1.803     qc      0         |                
   |         loc     3    0.000   1.803     pn      0         |                
   |                                                          |                
   | Augmentation charge Rinner = 0.600                       |                
   | Partial core correction Rc = 0.600                       |                
   ------------------------------------------------------------                
   | "3|1.8|1.8|0.6|12|14|16|30U:40:31:32(qc=7)"              |                
   ------------------------------------------------------------                
   |      Author: Chris J. Pickard, Cambridge University      |                
   ============================================================                

 Pseudo atomic calculation performed for Al 3s2 3p1

 Converged in 22 iterations to a total energy of -107.1308 eV

 Pseudo atomic calculation performed for Ti 3s2 3p6 3d2 4s2

 Converged in 51 iterations to a total energy of -1587.0236 eV

 Pseudo atomic calculation performed for V 3s2 3p6 3d3 4s2

 Converged in 52 iterations to a total energy of -2065.7874 eV
 Calculation parallelised over 384 processes.
 Data is distributed by G-vector(12-way) and k-point(32-way)

 ************************************ Title ************************************
 

 ***************************** General Parameters ******************************
  
 output verbosity                               : normal  (1)
 write checkpoint data to                       : ti64_hex_phonon.check
 type of calculation                            : phonon calculation
 stress calculation                             : on
 density difference calculation                 : off
 electron localisation func (ELF) calculation   : off
 Hirshfeld analysis                             : off
 polarisation (Berry phase) analysis            : off
 molecular orbital projected DOS                : off
 deltaSCF calculation                           : off
 unlimited duration calculation
 timing information                             : on
 memory usage estimate                          : on
 write extra output files                       : on
 write final potential to formatted file        : off
 write final density to formatted file          : off
 write structure in CELL formatted file         : on
 write BibTeX reference list                    : on
 write OTFG pseudopotential files               : on
 write electrostatic potential file             : on
 write bands file                               : on
 checkpoint writing                             : both castep_bin and check files
  
 output         length unit                     : A
 output           mass unit                     : amu
 output           time unit                     : ps
 output         charge unit                     : e
 output           spin unit                     : hbar/2
 output         energy unit                     : eV
 output          force unit                     : eV/A
 output       velocity unit                     : A/ps
 output       pressure unit                     : GPa
 output     inv_length unit                     : 1/A
 output      frequency unit                     : THz
 output force constant unit                     : eV/A**2
 output         volume unit                     : A**3
 output   IR intensity unit                     : (D/A)**2/amu
 output         dipole unit                     : D
 output         efield unit                     : eV/A/e
 output        entropy unit                     : J/mol/K
 output    efield chi2 unit                     : pm/V
  
 wavefunctions paging                           : none
 random number generator seed                   :   94923995
 data distribution                              : k-point only
 optimization strategy                          : maximize speed(+++)

 *********************** Exchange-Correlation Parameters ***********************
  
 using functional                               : Perdew Burke Ernzerhof
 relativistic treatment                         : Koelling-Harmon
 DFT+D: Semi-empirical dispersion correction    : off

 ************************* Pseudopotential Parameters **************************
  
 pseudopotential representation                 : reciprocal space
 <beta|phi> representation                      : reciprocal space
 spin-orbit coupling                            : off

 **************************** Basis Set Parameters *****************************
  
 plane wave basis set cut-off                   :   800.0000   eV
 size of standard grid                          :     2.0000
 size of   fine   grid                          :     4.0000
 size of   fine   gmax                          :    57.9620   1/A
 largest prime factor in FFT                    :          5
 finite basis set correction                    : automatic
 number of sample energies                      :          3
           sample  spacing                      :     5.0000   eV

 **************************** Electronic Parameters ****************************
  
 number of  electrons                           :  136.0    
 net charge of system                           :  0.000    
 treating system as non-spin-polarized
 number of bands                                :        103

 ********************* Electronic Minimization Parameters **********************
  
 Method: Treating system as metallic with density mixing treatment of electrons,
         and number of  SD  steps               :          1
         and number of  CG  steps               :          4
  
 total energy / atom convergence tol.           : 0.1000E-08   eV
 eigen-energy convergence tolerance             : 0.1165E-09   eV
 max force / atom convergence tol.              : ignored
 convergence tolerance window                   :          3   cycles
 max. number of SCF cycles                      :         30
 number of fixed-spin iterations                :         10
 smearing scheme                                : Gaussian
 smearing width                                 : 0.5000E-01   eV
 Fermi energy convergence tolerance             : 0.2721E-13   eV
 periodic dipole correction                     : NONE

 ************************** Density Mixing Parameters **************************
  
 density-mixing scheme                          : Pulay
 max. length of mixing history                  :         20
 charge density mixing amplitude                : 0.8000    
 cut-off energy for mixing                      :  800.0       eV
 charge density mixing g-vector                 :  1.500       1/A

 *********************** Population Analysis Parameters ************************
  
 Population analysis with cutoff                :  3.000       A
 Population analysis output                     : summary and pdos components

 ****************************** Phonon Parameters ******************************
  
 phonon calculation method                      : finite displacement
 finite displacement amplitude                  : 0.1000E-01   A
 fine phonon calculation method                 : interpolation
 non-periodic force constant method             : Weighted cumulant sum
 force constant cutoff scale factor             :     1.0000
 LO/TO splitting term                           : included
 acoustic phonon sum rule                       : correct D(q) in recip-space
 Born effective charges                         : calculated
 Born charge sum rule                           : explicitly enforced
 Raman intensities                              : not calculated
 phonon extra output                            : real-space force constants
 phonon k-points                                : use reduced set
 phonon DOS                                     : not calculated
 backups results every                          :       3600   seconds
 band convergence tolerance                     : 0.1000E-08   eV

 ******************************* Developer Code ********************************
  
 PARALLEL: kpoints=32 : ENDPARALLEL
 no_improve_wvfn

 *******************************************************************************
  

                           -------------------------------
                                      Unit Cell
                           -------------------------------
        Real Lattice(A)                      Reciprocal Lattice(1/A)
     7.8533650     0.0000000     0.0000000        0.800062815  -0.000000000  -0.000000000
     0.0000000     4.5341420     0.0000000        0.000000000   1.385749566  -0.000000000
     0.0000000     0.0000000     5.5777490        0.000000000   0.000000000   1.126473297

                       Lattice parameters(A)       Cell Angles
                    a =      7.853365          alpha =   90.000000
                    b =      4.534142          beta  =   90.000000
                    c =      5.577749          gamma =   90.000000

                       Current cell volume =           198.614004       A**3
                                   density =             2.802386   AMU/A**3
                                           =             4.653471     g/cm^3

                           -------------------------------
                                     Cell Contents
                           -------------------------------
                         Total number of ions in cell =   12
                      Total number of species in cell =    3
                        Max number of any one species =   10

            xxxxxxxxxxxxxxxxxxxxxxxxxxxxxxxxxxxxxxxxxxxxxxxxxxxxxxxxxxxx
            x  Element    Atom        Fractional coordinates of atoms  x
            x            Number           u          v          w      x
            x----------------------------------------------------------x
            x  Al           1         0.001297   0.000000  -0.001030   x 
            x  Ti           1         0.327843   0.000000   0.248862   x 
            x  Ti           2         0.500029   0.500000  -0.001243   x 
            x  Ti           3         0.666749   0.000000   0.248895   x 
            x  Ti           4         0.839675   0.500000   0.249678   x 
            x  Ti           5         0.002404   0.000000   0.497669   x 
            x  Ti           6         0.165189   0.500000   0.755404   x 
            x  Ti           7         0.333850   0.000000   0.748202   x 
            x  Ti           8         0.496048   0.500000   0.498510   x 
            x  Ti           9         0.668520   0.000000   0.748012   x 
            x  Ti          10         0.831938   0.500000   0.749090   x 
            x  V            1         0.166459   0.500000   0.257952   x 
            xxxxxxxxxxxxxxxxxxxxxxxxxxxxxxxxxxxxxxxxxxxxxxxxxxxxxxxxxxxx


                         No user defined ionic velocities

                           -------------------------------
                                   Details of Species
                           -------------------------------

                               Mass of species in AMU
                                    Al   26.9815400
                                    Ti   47.8670000
                                    V   50.9415000

                          Electric Quadrupole Moment (Barn)
                                    Al    0.1466000 Isotope 27
                                    Ti    0.3020000 Isotope 47
                                    V   -0.0520000 Isotope 51

                          Files used for pseudopotentials:
                                    Al 3|2.2|2.2|1.4|4|5|5|30:31:32U2U2
                                    Ti 3|1.8|9|10|11|30U:40:31:32(qc=5.5)
                                    V 3|1.8|1.8|0.6|12|14|16|30U:40:31:32(qc=7)

                           -------------------------------
                              k-Points For BZ Sampling
                           -------------------------------
                       MP grid size for SCF calculation is  7 12  9
                            with an offset of   0.000  0.000  0.000
                       Number of kpoints used =           192

                           -------------------------------
                               Symmetry and Constraints
                           -------------------------------

                      Maximum deviation from symmetry = 0.940008E-15     ANG

                      Number of symmetry operations   =           2
                      Number of ionic constraints     =           3
                      Point group of crystal =     3: Cs, m, m
                      Space group of crystal =     6: Pm, P -2y

             Set iprint > 1 for details on symmetry rotations/translations

                         Centre of mass is constrained
             Set iprint > 1 for details of linear ionic constraints

                         Number of cell constraints= 2
                         Cell constraints are:  1 2 3 0 5 0

                         External pressure/stress (GPa)
                          0.00000   0.00000   0.00000
                                    0.00000   0.00000
                                              0.00000
 
+---------------- MEMORY AND SCRATCH DISK ESTIMATES PER PROCESS --------------+
|                                                     Memory          Disk    |
| Baseline code, static data and system overhead      591.0 MB         0.0 MB |
| BLAS internal memory storage                          0.0 MB         0.0 MB |
| Model and support data                              826.6 MB         0.0 MB |
| Electronic energy minimisation requirements          50.0 MB         0.0 MB |
| Force calculation requirements                       18.7 MB         0.0 MB |
| Stress calculation requirements                      20.5 MB         0.0 MB |
|                                               ----------------------------- |
| Approx. total storage required per process         1467.5 MB         0.0 MB |
|                                                                             |
| Requirements will fluctuate during execution and may exceed these estimates |
+-----------------------------------------------------------------------------+
Calculating finite basis set correction with  3 cut-off energies.
Calculating total energy with cut-off of  790.000 eV.
------------------------------------------------------------------------ <-- SCF
SCF loop      Energy           Fermi           Energy gain       Timer   <-- SCF
                               energy          per atom          (sec)   <-- SCF
------------------------------------------------------------------------ <-- SCF
Initial  -1.63491704E+004  0.00000000E+000                        22.93  <-- SCF
      1  -1.76217323E+004  1.13924090E+001   1.06046831E+002      26.35  <-- SCF
      2  -1.80925322E+004  9.58829692E+000   3.92333227E+001      28.97  <-- SCF
      3  -1.81255700E+004  9.17119939E+000   2.75314611E+000      32.37  <-- SCF
      4  -1.81263250E+004  9.15934364E+000   6.29246110E-002      35.17  <-- SCF
      5  -1.81278926E+004  8.37947674E+000   1.30631943E-001      39.63  <-- SCF
      6  -1.81269855E+004  8.47756949E+000  -7.55959973E-002      44.36  <-- SCF
      7  -1.81252113E+004  8.76205665E+000  -1.47848222E-001      48.67  <-- SCF
      8  -1.81242969E+004  8.79237172E+000  -7.62021231E-002      53.43  <-- SCF
      9  -1.81243254E+004  8.73944909E+000   2.37753125E-003      58.13  <-- SCF
     10  -1.81242652E+004  8.73284862E+000  -5.01788830E-003      62.94  <-- SCF
     11  -1.81242663E+004  8.72349462E+000   9.00585479E-005      67.68  <-- SCF
     12  -1.81242632E+004  8.72405704E+000  -2.56578951E-004      72.42  <-- SCF
     13  -1.81242634E+004  8.72429345E+000   1.48698826E-005      77.26  <-- SCF
     14  -1.81242631E+004  8.72442679E+000  -2.09905488E-005      81.93  <-- SCF
     15  -1.81242631E+004  8.72448367E+000   9.07352417E-007      86.89  <-- SCF
     16  -1.81242631E+004  8.72446849E+000  -8.67589906E-007      91.51  <-- SCF
     17  -1.81242631E+004  8.72446112E+000   2.71659838E-008      96.22  <-- SCF
     18  -1.81242631E+004  8.72445227E+000  -2.28808648E-008     100.58  <-- SCF
     19  -1.81242631E+004  8.72445022E+000   2.94405359E-010     104.15  <-- SCF
     20  -1.81242631E+004  8.72444566E+000  -5.63030914E-010     107.26  <-- SCF
------------------------------------------------------------------------ <-- SCF
 
Final energy, E             =  -18124.25403137     eV
Final free energy (E-TS)    =  -18124.26312057     eV
(energies not corrected for finite basis set)
 
NB est. 0K energy (E-0.5TS)      =  -18124.25857597     eV
 
Calculating total energy with cut-off of  795.000 eV.
------------------------------------------------------------------------ <-- SCF
SCF loop      Energy           Fermi           Energy gain       Timer   <-- SCF
                               energy          per atom          (sec)   <-- SCF
------------------------------------------------------------------------ <-- SCF
Initial  -1.81242540E+004  0.00000000E+000                       111.43  <-- SCF
      1  -1.81242633E+004  8.72444116E+000   7.74659708E-004     114.69  <-- SCF
      2  -1.81242633E+004  8.72444116E+000   3.09125627E-009     119.05  <-- SCF
      3  -1.81242633E+004  8.72443664E+000   6.67761366E-008     124.54  <-- SCF
      4  -1.81242634E+004  8.72447080E+000   4.73980047E-006     130.04  <-- SCF
      5  -1.81242633E+004  8.72452004E+000  -4.47325921E-006     135.49  <-- SCF
      6  -1.81242633E+004  8.72432310E+000   2.36580486E-007     141.14  <-- SCF
      7  -1.81242633E+004  8.72446895E+000  -3.31752045E-007     146.70  <-- SCF
      8  -1.81242633E+004  8.72444550E+000  -2.38305154E-007     152.17  <-- SCF
      9  -1.81242633E+004  8.72443697E+000   1.57893564E-008     157.39  <-- SCF
     10  -1.81242633E+004  8.72443876E+000  -1.43977626E-008     162.43  <-- SCF
     11  -1.81242633E+004  8.72444048E+000   1.38437546E-010     166.22  <-- SCF
     12  -1.81242633E+004  8.72444470E+000  -2.59087028E-010     169.85  <-- SCF
------------------------------------------------------------------------ <-- SCF
 
Final energy, E             =  -18124.25423816     eV
Final free energy (E-TS)    =  -18124.26332734     eV
(energies not corrected for finite basis set)
 
NB est. 0K energy (E-0.5TS)      =  -18124.25878275     eV
 
Calculating total energy with cut-off of  800.000 eV.
------------------------------------------------------------------------ <-- SCF
SCF loop      Energy           Fermi           Energy gain       Timer   <-- SCF
                               energy          per atom          (sec)   <-- SCF
------------------------------------------------------------------------ <-- SCF
Initial  -1.81242542E+004  0.00000000E+000                       174.03  <-- SCF
      1  -1.81242635E+004  8.72443551E+000   7.73948798E-004     177.17  <-- SCF
      2  -1.81242635E+004  8.72443551E+000   2.88965820E-009     181.47  <-- SCF
      3  -1.81242635E+004  8.72444760E+000   9.63370642E-008     187.31  <-- SCF
      4  -1.81242636E+004  8.72445778E+000   7.27072523E-006     192.83  <-- SCF
      5  -1.81242635E+004  8.72434416E+000  -6.93975766E-006     198.30  <-- SCF
      6  -1.81242635E+004  8.72452157E+000  -4.20228847E-008     203.96  <-- SCF
      7  -1.81242635E+004  8.72443656E+000   2.56202268E-008     209.47  <-- SCF
      8  -1.81242635E+004  8.72444562E+000  -4.12725377E-007     214.99  <-- SCF
      9  -1.81242635E+004  8.72443980E+000   1.65400643E-008     220.22  <-- SCF
     10  -1.81242635E+004  8.72442932E+000  -1.42363810E-008     225.28  <-- SCF
     11  -1.81242635E+004  8.72443363E+000  -2.07527420E-010     229.11  <-- SCF
     12  -1.81242635E+004  8.72444035E+000  -1.87419173E-010     232.72  <-- SCF
------------------------------------------------------------------------ <-- SCF
 
Final energy, E             =  -18124.25443640     eV
Final free energy (E-TS)    =  -18124.26352558     eV
(energies not corrected for finite basis set)
 
NB est. 0K energy (E-0.5TS)      =  -18124.25898099     eV
 
 For future reference: finite basis dEtot/dlog(Ecut) =      -0.032206eV
 Total energy corrected for finite basis set =  -18124.263526 eV
 ??????????????????????????????????????????????????????????????????????????????? 
     WARNING: Calculation of Born effective charges and IR intensities is not    
              implemented for ultrasoft pseudopotentials.                        
              Parameter CALCULATE_BORN_CHARGES changed to .FALSE.                
 ??????????????????????????????????????????????????????????????????????????????? 
 ??????????????????????????????????????????????????????????????????????????????? 
     WARNING: Calculation of LO/TO splitting is not implemented for ultrasoft    
              pseudopotentials.                                                  
              Parameter PHONON_CALC_LO_TO_SPLITTING changed to .FALSE.           
 ??????????????????????????????????????????????????????????????????????????????? 

 Phonon supercell    1 (of 7)      [  0 -1  0; -1  0  0;  0  0 -2]:     237.56s
 -------------------------------------------------------------------------------
  Parallel strategy changed for perturbation using 108 k-points
  Data is distributed by G-vector(12-way) and k-point(32-way) and band(1-way)
  +---------------- MEMORY AND SCRATCH DISK ESTIMATES PER PROCESS --------------+
  |                                                     Memory          Disk    |
  | Baseline code, static data and system overhead      591.0 MB         0.0 MB |
  | BLAS internal memory storage                          0.0 MB         0.0 MB |
  | Model and support data                              826.6 MB         0.0 MB |
  | Finite displacement phonon requirements             142.0 MB         0.0 MB |
  |                                               ----------------------------- |
  | Approx. total storage required per process         1559.5 MB         0.0 MB |
  |                                                                             |
  | Requirements will fluctuate during execution and may exceed these estimates |
  +-----------------------------------------------------------------------------+
 Perturbation    1 (of   36): Al    1 X at q=( 0.000, 0.000, 0.000):    577.52s
  Parallel strategy changed for perturbation using 108 k-points
  Data is distributed by G-vector(32-way) and k-point(12-way) and band(1-way)
 Perturbation    2 (of   36): Al    1 Y at q=( 0.000, 0.000, 0.000):    903.90s
  Parallel strategy changed for perturbation using 210 k-points
  Data is distributed by G-vector(12-way) and k-point(32-way) and band(1-way)
  +---------------- MEMORY AND SCRATCH DISK ESTIMATES PER PROCESS --------------+
  |                                                     Memory          Disk    |
  | Baseline code, static data and system overhead      591.0 MB         0.0 MB |
  | BLAS internal memory storage                          0.0 MB         0.0 MB |
  | Model and support data                              826.6 MB         0.0 MB |
  | Finite displacement phonon requirements             154.7 MB         0.0 MB |
  |                                               ----------------------------- |
  | Approx. total storage required per process         1572.3 MB         0.0 MB |
  |                                                                             |
  | Requirements will fluctuate during execution and may exceed these estimates |
  +-----------------------------------------------------------------------------+
 Perturbation    3 (of   36): Al    1 Z at q=( 0.000, 0.000, 0.000):   1382.77s
  Parallel strategy changed for perturbation using 108 k-points
  Data is distributed by G-vector(32-way) and k-point(12-way) and band(1-way)
 Perturbation    4 (of   36): Ti    1 X at q=( 0.000, 0.000, 0.000):   1699.77s
 Perturbation    5 (of   36): Ti    1 Y at q=( 0.000, 0.000, 0.000):   2051.41s
  Parallel strategy changed for perturbation using 210 k-points
  Data is distributed by G-vector(12-way) and k-point(32-way) and band(1-way)
 Perturbation    6 (of   36): Ti    1 Z at q=( 0.000, 0.000, 0.000):   2631.69s
  Parallel strategy changed for perturbation using 108 k-points
  Data is distributed by G-vector(32-way) and k-point(12-way) and band(1-way)
 Perturbation    7 (of   36): Ti    2 X at q=( 0.000, 0.000, 0.000):   2998.55s
 Perturbation    8 (of   36): Ti    2 Y at q=( 0.000, 0.000, 0.000):   3348.26s
  Parallel strategy changed for perturbation using 210 k-points
  Data is distributed by G-vector(12-way) and k-point(32-way) and band(1-way)

Writing analysis data to ti64_hex_phonon.castep_bin

Writing model to ti64_hex_phonon.check
 Perturbation    9 (of   36): Ti    2 Z at q=( 0.000, 0.000, 0.000):   3955.80s
  Parallel strategy changed for perturbation using 108 k-points
  Data is distributed by G-vector(32-way) and k-point(12-way) and band(1-way)
 Perturbation   10 (of   36): Ti    3 X at q=( 0.000, 0.000, 0.000):   4312.14s
 Perturbation   11 (of   36): Ti    3 Y at q=( 0.000, 0.000, 0.000):   4675.76s
  Parallel strategy changed for perturbation using 210 k-points
  Data is distributed by G-vector(12-way) and k-point(32-way) and band(1-way)
 Perturbation   12 (of   36): Ti    3 Z at q=( 0.000, 0.000, 0.000):   5256.53s
  Parallel strategy changed for perturbation using 108 k-points
  Data is distributed by G-vector(32-way) and k-point(12-way) and band(1-way)
 Perturbation   13 (of   36): Ti    4 X at q=( 0.000, 0.000, 0.000):   5613.94s
 Perturbation   14 (of   36): Ti    4 Y at q=( 0.000, 0.000, 0.000):   5977.47s
  Parallel strategy changed for perturbation using 210 k-points
  Data is distributed by G-vector(12-way) and k-point(32-way) and band(1-way)
 Perturbation   15 (of   36): Ti    4 Z at q=( 0.000, 0.000, 0.000):   6561.53s
  Parallel strategy changed for perturbation using 108 k-points
  Data is distributed by G-vector(32-way) and k-point(12-way) and band(1-way)
 Perturbation   16 (of   36): Ti    5 X at q=( 0.000, 0.000, 0.000):   6932.50s
 Perturbation   17 (of   36): Ti    5 Y at q=( 0.000, 0.000, 0.000):   7283.82s
  Parallel strategy changed for perturbation using 210 k-points
  Data is distributed by G-vector(12-way) and k-point(32-way) and band(1-way)

Writing analysis data to ti64_hex_phonon.castep_bin

Writing model to ti64_hex_phonon.check
 Perturbation   18 (of   36): Ti    5 Z at q=( 0.000, 0.000, 0.000):   7898.01s
  Parallel strategy changed for perturbation using 108 k-points
  Data is distributed by G-vector(32-way) and k-point(12-way) and band(1-way)
 Perturbation   19 (of   36): Ti    6 X at q=( 0.000, 0.000, 0.000):   8261.47s
 Perturbation   20 (of   36): Ti    6 Y at q=( 0.000, 0.000, 0.000):   8613.85s
  Parallel strategy changed for perturbation using 210 k-points
  Data is distributed by G-vector(12-way) and k-point(32-way) and band(1-way)
 Perturbation   21 (of   36): Ti    6 Z at q=( 0.000, 0.000, 0.000):   9199.86s
  Parallel strategy changed for perturbation using 108 k-points
  Data is distributed by G-vector(32-way) and k-point(12-way) and band(1-way)
 Perturbation   22 (of   36): Ti    7 X at q=( 0.000, 0.000, 0.000):   9556.56s
 Perturbation   23 (of   36): Ti    7 Y at q=( 0.000, 0.000, 0.000):   9883.36s
  Parallel strategy changed for perturbation using 210 k-points
  Data is distributed by G-vector(12-way) and k-point(32-way) and band(1-way)
 Perturbation   24 (of   36): Ti    7 Z at q=( 0.000, 0.000, 0.000):  10493.77s
  Parallel strategy changed for perturbation using 108 k-points
  Data is distributed by G-vector(32-way) and k-point(12-way) and band(1-way)
 Perturbation   25 (of   36): Ti    8 X at q=( 0.000, 0.000, 0.000):  10849.72s
 Perturbation   26 (of   36): Ti    8 Y at q=( 0.000, 0.000, 0.000):  11192.23s
  Parallel strategy changed for perturbation using 210 k-points
  Data is distributed by G-vector(12-way) and k-point(32-way) and band(1-way)

Writing analysis data to ti64_hex_phonon.castep_bin

Writing model to ti64_hex_phonon.check
 Perturbation   27 (of   36): Ti    8 Z at q=( 0.000, 0.000, 0.000):  11802.34s
  Parallel strategy changed for perturbation using 108 k-points
  Data is distributed by G-vector(32-way) and k-point(12-way) and band(1-way)
 Perturbation   28 (of   36): Ti    9 X at q=( 0.000, 0.000, 0.000):  12166.08s
 Perturbation   29 (of   36): Ti    9 Y at q=( 0.000, 0.000, 0.000):  12520.25s
  Parallel strategy changed for perturbation using 210 k-points
  Data is distributed by G-vector(12-way) and k-point(32-way) and band(1-way)
 Perturbation   30 (of   36): Ti    9 Z at q=( 0.000, 0.000, 0.000):  13134.54s
  Parallel strategy changed for perturbation using 108 k-points
  Data is distributed by G-vector(32-way) and k-point(12-way) and band(1-way)
 Perturbation   31 (of   36): Ti   10 X at q=( 0.000, 0.000, 0.000):  13492.54s
 Perturbation   32 (of   36): Ti   10 Y at q=( 0.000, 0.000, 0.000):  13848.24s
  Parallel strategy changed for perturbation using 210 k-points
  Data is distributed by G-vector(12-way) and k-point(32-way) and band(1-way)
 Perturbation   33 (of   36): Ti   10 Z at q=( 0.000, 0.000, 0.000):  14409.48s
  Parallel strategy changed for perturbation using 108 k-points
  Data is distributed by G-vector(32-way) and k-point(12-way) and band(1-way)
 Perturbation   34 (of   36): V     1 X at q=( 0.000, 0.000, 0.000):  14767.08s
 Perturbation   35 (of   36): V     1 Y at q=( 0.000, 0.000, 0.000):  15105.20s
  Parallel strategy changed for perturbation using 210 k-points
  Data is distributed by G-vector(12-way) and k-point(32-way) and band(1-way)

Writing analysis data to ti64_hex_phonon.castep_bin

Writing model to ti64_hex_phonon.check
 Perturbation   36 (of   36): V     1 Z at q=( 0.000, 0.000, 0.000):  15699.91s
  Parallel strategy changed for perturbation using 108 k-points
  Data is distributed by G-vector(32-way) and k-point(12-way) and band(1-way)

 Phonon supercell    2 (of 7)      [  0  0  1;  1  0  0;  0  2  0]:   16047.81s
 -------------------------------------------------------------------------------
  Parallel strategy changed for perturbation using 96 k-points
  Data is distributed by G-vector(12-way) and k-point(32-way) and band(1-way)

Writing analysis data to ti64_hex_phonon.castep_bin

Writing model to ti64_hex_phonon.check
 Perturbation    1 (of   36): Al    1 X at q=( 0.000, 0.000, 0.000):  16304.17s
  Parallel strategy changed for perturbation using 96 k-points
  Data is distributed by G-vector(4-way) and k-point(96-way) and band(1-way)
  +---------------- MEMORY AND SCRATCH DISK ESTIMATES PER PROCESS --------------+
  |                                                     Memory          Disk    |
  | Baseline code, static data and system overhead      591.0 MB         0.0 MB |
  | BLAS internal memory storage                          0.0 MB         0.0 MB |
  | Model and support data                              826.6 MB         0.0 MB |
  | Finite displacement phonon requirements             184.1 MB         0.0 MB |
  |                                               ----------------------------- |
  | Approx. total storage required per process         1601.7 MB         0.0 MB |
  |                                                                             |
  | Requirements will fluctuate during execution and may exceed these estimates |
  +-----------------------------------------------------------------------------+
 +-------------------------------------------------+
 |                                                 |
 |      CCC   AA    SSS  TTTTT  EEEEE  PPPP        |
 |     C     A  A  S       T    E      P   P       |
 |     C     AAAA   SS     T    EEE    PPPP        |
 |     C     A  A     S    T    E      P           |
 |      CCC  A  A  SSS     T    EEEEE  P           |
 |                                                 |
 +-------------------------------------------------+
 |                                                 |
 | Welcome to Academic Release CASTEP version 24.1 |
 | Ab Initio Total Energy Program                  |
 |                                                 |
 | Authors:                                        |
 | M. Segall, M. Probert, C. Pickard, P. Hasnip,   |
 | S. Clark, K. Refson, J. R. Yates,               |
 | A. Bartok-Partay, M. Payne                      |
 |                                                 |
 | Contributors:                                   |
 | P. Lindan, P. Haynes, J. White, V. Milman,      |
 | N. Govind, M. Gibson, P. Tulip, V. Cocula,      |
 | B. Montanari, D. Quigley, M. Glover,            |
 | L. Bernasconi, A. Perlov, M. Plummer,           |
 | E. McNellis, J. Meyer, J. Gale, D. Jochym       |
 | J. Aarons, B. Walker, R. Gillen, D. Jones       |
 | T. Green, I. J. Bush, C. J. Armstrong,          |
 | E. J. Higgins, E. L. Brown, M. S. McFly,        |
 | J. Wilkins, B-C. Shih, P. J. P. Byrne,          |
 | R. J. Maurer, J. C. Womack, J. Dziedzic,        |
 | L. LeBlanc, T. K. Stenczel, J. Kermode,         |
 | S. Sturniolo, B. Shi, B. Durham, M. Evans,      |
 | M. J. Smith, A. Tamerus, Z. Hawkhead,           |
 | V. Ravindran, T. Hollins, S. A. Joyce,          |
 | R. T. Strong, A. M. Reilly                      |
 |                                                 |
 | Copyright (c) 2000 - 2023                       |
 |                                                 |
 |     Distributed under license from Cambridge    |
 |     Enterprise for academic use only.           |
 |                                                 |
 | Please cite                                     |
 |                                                 |
 |     "First principles methods using CASTEP"     |
 |                                                 |
 |         Zeitschrift fuer Kristallographie       |
 |           220(5-6) pp. 567-570 (2005)           |
 |                                                 |
 | S. J. Clark, M. D. Segall, C. J. Pickard,       |
 | P. J. Hasnip, M. J. Probert, K. Refson,         |
 | M. C. Payne                                     |
 |                                                 |
 |       in all publications arising from          |
 |              your use of CASTEP                 |
 |                                                 |
 +-------------------------------------------------+
 |                                                 |
 |              http://www.castep.org              |
 |                                                 |
 +-------------------------------------------------+



 Compiled for linux_x86_64_gfortran10 on Tue, 02 May 2023 15:31:46 +0100
 from code version db08e394c+  default  Mon May 1 16:40:39 2023 +0100
 Compiler: GNU Fortran 10.2.0; Optimisation: fast
 Comms   : Open MPI v4.0.5
 MATHLIBS: openblas (LAPACK version 3.9.0)
 FFT Lib : fftw3 version fftw-3.3.8-sse2-avx-avx2-avx2_128
 Fundamental constants values: CODATA 2018

 Run started: Wed, 20 Mar 2024 15:05:35 +0000
 +-------------------------------------------------+
 |                                                 |
 |  D D D D    F F F F F  P P P P     T T T T T    |
 |  D       D  F          P       P       T        |
 |  D       D  F F F F    P P P P         T        |
 |  D       D  F          P               T        |
 |  D D D D    F          P               T        |
 |                                                 |
 +-------------------------------------------------+
 |                                                 |
 | Welcome to Castep Linear Response (DFPT)        |
 |                                                 |
 | Copyright (c) 2006 - 2023                       |
 |                                                 |
 | Please cite the following publications in all   |
 | work arising from your use of CASTEP LR.        |
 |                                                 |
 | K. Refson, S. J. Clark and P. R. Tulip          |
 | Variational density functional perturbation     |
 | theory for dielectrics and lattice dynamics     |
 | Phys. Rev. B 73(15), 155114 (2006)              |
 +-------------------------------------------------+

Reading continuation data from model file ti64_hex_phonon.check

 Atomic calculation performed for Al: 1s2 2s2 2p6 3s2 3p1

 Converged in 54 iterations to an ae energy of -6603.783 eV

   ============================================================                
   | Pseudopotential Report - Date of generation 20-03-2024   |                
   ------------------------------------------------------------                
   | Element: Al Ionic charge:  3.00 Level of theory: PBE     |                
   | Atomic Solver: Koelling-Harmon                           |                
   |                                                          |                
   |               Reference Electronic Structure             |                
   |         Orbital         Occupation         Energy        |                
   |            3s              2.000           -0.285        |                
   |            3p              1.000           -0.100        |                
   |                                                          |                
   |                 Pseudopotential Definition               |                
   |        Beta     l      e      Rc     scheme   norm       |                
   |          1      0   -0.285   2.192     qc      0         |                
   |          2      0    0.250   2.192     qc      0         |                
   |          3      1   -0.100   2.192     qc      0         |                
   |          4      1    0.250   2.192     qc      0         |                
   |          5      2    0.000   2.000     qc      0         |                
   |          6      2    0.250   2.000     qc      0         |                
   |         loc     3    0.000   2.192     pn      0         |                
   |                                                          |                
   | Augmentation charge Rinner = 1.398                       |                
   | Partial core correction Rc = 1.398                       |                
   ------------------------------------------------------------                
   | "3|2.2|2.2|1.4|4|5|5|30:31:32U2U2"                       |                
   ------------------------------------------------------------                
   |      Author: Chris J. Pickard, Cambridge University      |                
   ============================================================                

 Atomic calculation performed for Ti: 1s2 2s2 2p6 3s2 3p6 3d2 4s2

 Converged in 79 iterations to an ae energy of -23226.658 eV

   ============================================================                
   | Pseudopotential Report - Date of generation 20-03-2024   |                
   ------------------------------------------------------------                
   | Element: Ti Ionic charge: 12.00 Level of theory: PBE     |                
   | Atomic Solver: Koelling-Harmon                           |                
   |                                                          |                
   |               Reference Electronic Structure             |                
   |         Orbital         Occupation         Energy        |                
   |            3s              2.000           -2.302        |                
   |            3p              6.000           -1.428        |                
   |            4s              2.000           -0.164        |                
   |            3d              2.000           -0.157        |                
   |                                                          |                
   |                 Pseudopotential Definition               |                
   |        Beta     l      e      Rc     scheme   norm       |                
   |          1      0   -2.302   1.793     qc      0         |                
   |          2      0   -0.164   1.793     qc      0         |                
   |          3      0    0.250   1.793     qc      0         |                
   |          4      1   -1.428   1.793     qc      0         |                
   |          5      1    0.250   1.793     qc      0         |                
   |          6      2   -0.157   1.793     qc      0         |                
   |          7      2    0.250   1.793     qc      0         |                
   |         loc     3    0.000   1.793     pn      0         |                
   |                                                          |                
   | Augmentation charge Rinner = 1.263                       |                
   | Partial core correction Rc = 1.263                       |                
   ------------------------------------------------------------                
   | "3|1.8|9|10|11|30U:40:31:32(qc=5.5)"                     |                
   ------------------------------------------------------------                
   |      Author: Chris J. Pickard, Cambridge University      |                
   ============================================================                

 Atomic calculation performed for V: 1s2 2s2 2p6 3s2 3p6 3d3 4s2

 Converged in 81 iterations to an ae energy of -25823.733 eV

   ============================================================                
   | Pseudopotential Report - Date of generation 20-03-2024   |                
   ------------------------------------------------------------                
   | Element: V Ionic charge: 13.00 Level of theory: PBE      |                
   | Atomic Solver: Koelling-Harmon                           |                
   |                                                          |                
   |               Reference Electronic Structure             |                
   |         Orbital         Occupation         Energy        |                
   |            3s              2.000           -2.581        |                
   |            3p              6.000           -1.618        |                
   |            3d              3.000           -0.190        |                
   |            4s              2.000           -0.173        |                
   |                                                          |                
   |                 Pseudopotential Definition               |                
   |        Beta     l      e      Rc     scheme   norm       |                
   |          1      0   -2.581   1.803     qc      0         |                
   |          2      0   -0.173   1.803     qc      0         |                
   |          3      0    0.250   1.803     qc      0         |                
   |          4      1   -1.618   1.803     qc      0         |                
   |          5      1    0.250   1.803     qc      0         |                
   |          6      2   -0.190   1.803     qc      0         |                
   |          7      2    0.250   1.803     qc      0         |                
   |         loc     3    0.000   1.803     pn      0         |                
   |                                                          |                
   | Augmentation charge Rinner = 0.600                       |                
   | Partial core correction Rc = 0.600                       |                
   ------------------------------------------------------------                
   | "3|1.8|1.8|0.6|12|14|16|30U:40:31:32(qc=7)"              |                
   ------------------------------------------------------------                
   |      Author: Chris J. Pickard, Cambridge University      |                
   ============================================================                

 Pseudo atomic calculation performed for Al 3s2 3p1

 Converged in 22 iterations to a total energy of -107.1308 eV

 Pseudo atomic calculation performed for Ti 3s2 3p6 3d2 4s2

 Converged in 51 iterations to a total energy of -1587.0236 eV

 Pseudo atomic calculation performed for V 3s2 3p6 3d3 4s2

 Converged in 52 iterations to a total energy of -2065.7874 eV
Initialising basis set for model.
Reinitialising basis set for current geometry.
Continuing from previous run with ground state wavefunction.
Continuing from previous run with ground state density.
 Calculation parallelised over 384 processes.
 Data is distributed by G-vector(12-way) and k-point(32-way)

 ************************************ Title ************************************
 

 ***************************** General Parameters ******************************
  
 output verbosity                               : normal  (1)
 continuing from                                : ti64_hex_phonon.check
 write checkpoint data to                       : ti64_hex_phonon.check
 type of calculation                            : phonon calculation
 stress calculation                             : on
 density difference calculation                 : off
 electron localisation func (ELF) calculation   : off
 Hirshfeld analysis                             : off
 polarisation (Berry phase) analysis            : off
 molecular orbital projected DOS                : off
 deltaSCF calculation                           : off
 unlimited duration calculation
 timing information                             : on
 memory usage estimate                          : on
 write extra output files                       : on
 write final potential to formatted file        : off
 write final density to formatted file          : off
 write structure in CELL formatted file         : on
 write BibTeX reference list                    : on
 write OTFG pseudopotential files               : on
 write electrostatic potential file             : on
 write bands file                               : on
 checkpoint writing                             : both castep_bin and check files
  
 output         length unit                     : A
 output           mass unit                     : amu
 output           time unit                     : ps
 output         charge unit                     : e
 output           spin unit                     : hbar/2
 output         energy unit                     : eV
 output          force unit                     : eV/A
 output       velocity unit                     : A/ps
 output       pressure unit                     : GPa
 output     inv_length unit                     : 1/A
 output      frequency unit                     : THz
 output force constant unit                     : eV/A**2
 output         volume unit                     : A**3
 output   IR intensity unit                     : (D/A)**2/amu
 output         dipole unit                     : D
 output         efield unit                     : eV/A/e
 output        entropy unit                     : J/mol/K
 output    efield chi2 unit                     : pm/V
  
 wavefunctions paging                           : none
 random number generator seed                   :   94923995
 data distribution                              : k-point only
 optimization strategy                          : maximize speed(+++)

 *********************** Exchange-Correlation Parameters ***********************
  
 using functional                               : Perdew Burke Ernzerhof
 relativistic treatment                         : Koelling-Harmon
 DFT+D: Semi-empirical dispersion correction    : off

 ************************* Pseudopotential Parameters **************************
  
 pseudopotential representation                 : reciprocal space
 <beta|phi> representation                      : reciprocal space
 spin-orbit coupling                            : off

 **************************** Basis Set Parameters *****************************
  
 plane wave basis set cut-off                   :   800.0000   eV
 size of standard grid                          :     2.0000
 size of   fine   grid                          :     4.0000
 size of   fine   gmax                          :    57.9620   1/A
 largest prime factor in FFT                    :          5
 finite basis set correction                    : automatic
 number of sample energies                      :          3
           sample  spacing                      :     5.0000   eV

 **************************** Electronic Parameters ****************************
  
 number of  electrons                           :  136.0    
 net charge of system                           :  0.000    
 treating system as non-spin-polarized
 number of bands                                :        103

 ********************* Electronic Minimization Parameters **********************
  
 Method: Treating system as metallic with density mixing treatment of electrons,
         and number of  SD  steps               :          1
         and number of  CG  steps               :          4
  
 total energy / atom convergence tol.           : 0.1000E-08   eV
 eigen-energy convergence tolerance             : 0.1165E-09   eV
 max force / atom convergence tol.              : ignored
 convergence tolerance window                   :          3   cycles
 max. number of SCF cycles                      :         30
 number of fixed-spin iterations                :         10
 smearing scheme                                : Gaussian
 smearing width                                 : 0.5000E-01   eV
 Fermi energy convergence tolerance             : 0.2721E-13   eV
 periodic dipole correction                     : NONE

 ************************** Density Mixing Parameters **************************
  
 density-mixing scheme                          : Pulay
 max. length of mixing history                  :         20
 charge density mixing amplitude                : 0.8000    
 cut-off energy for mixing                      :  800.0       eV
 charge density mixing g-vector                 :  1.500       1/A

 *********************** Population Analysis Parameters ************************
  
 Population analysis with cutoff                :  3.000       A
 Population analysis output                     : summary and pdos components

 ****************************** Phonon Parameters ******************************
  
 phonon calculation method                      : finite displacement
 finite displacement amplitude                  : 0.1000E-01   A
 fine phonon calculation method                 : interpolation
 non-periodic force constant method             : Weighted cumulant sum
 force constant cutoff scale factor             :     1.0000
 LO/TO splitting term                           : not included
 acoustic phonon sum rule                       : correct D(q) in recip-space
 Born effective charges                         : not calculated
 Raman intensities                              : not calculated
 phonon extra output                            : real-space force constants
 phonon k-points                                : use reduced set
 phonon DOS                                     : not calculated
 backups results every                          :       3600   seconds
 band convergence tolerance                     : 0.1000E-08   eV

 ******************************* Developer Code ********************************
  
 PARALLEL: kpoints=32 : ENDPARALLEL
 PHONON: DENSITY_SCHEME=NONE FD_WVFN_SCHEME=NONE COMMS_REASSIGN=F : ENDPHONON
 no_improve_wvfn

 *******************************************************************************
  

                           -------------------------------
                                      Unit Cell
                           -------------------------------
        Real Lattice(A)                      Reciprocal Lattice(1/A)
     7.8533650     0.0000000     0.0000000        0.800062815  -0.000000000  -0.000000000
     0.0000000     4.5341420     0.0000000        0.000000000   1.385749566  -0.000000000
     0.0000000     0.0000000     5.5777490        0.000000000   0.000000000   1.126473297

                       Lattice parameters(A)       Cell Angles
                    a =      7.853365          alpha =   90.000000
                    b =      4.534142          beta  =   90.000000
                    c =      5.577749          gamma =   90.000000

                       Current cell volume =           198.614004       A**3
                                   density =             2.802386   AMU/A**3
                                           =             4.653471     g/cm^3

                           -------------------------------
                                     Cell Contents
                           -------------------------------
                         Total number of ions in cell =   12
                      Total number of species in cell =    3
                        Max number of any one species =   10

            xxxxxxxxxxxxxxxxxxxxxxxxxxxxxxxxxxxxxxxxxxxxxxxxxxxxxxxxxxxx
            x  Element    Atom        Fractional coordinates of atoms  x
            x            Number           u          v          w      x
            x----------------------------------------------------------x
            x  Al           1         0.001297   0.000000   0.998970   x 
            x  Ti           1         0.327843   0.000000   0.248862   x 
            x  Ti           2         0.500029   0.500000   0.998757   x 
            x  Ti           3         0.666749   0.000000   0.248895   x 
            x  Ti           4         0.839675   0.500000   0.249678   x 
            x  Ti           5         0.002404   0.000000   0.497669   x 
            x  Ti           6         0.165189   0.500000   0.755404   x 
            x  Ti           7         0.333850   0.000000   0.748202   x 
            x  Ti           8         0.496048   0.500000   0.498510   x 
            x  Ti           9         0.668520   0.000000   0.748012   x 
            x  Ti          10         0.831938   0.500000   0.749090   x 
            x  V            1         0.166459   0.500000   0.257952   x 
            xxxxxxxxxxxxxxxxxxxxxxxxxxxxxxxxxxxxxxxxxxxxxxxxxxxxxxxxxxxx


                         No user defined ionic velocities

                           -------------------------------
                                   Details of Species
                           -------------------------------

                               Mass of species in AMU
                                    Al   26.9815400
                                    Ti   47.8670000
                                    V   50.9415000

                          Electric Quadrupole Moment (Barn)
                                    Al    0.1466000 Isotope 27
                                    Ti    0.3020000 Isotope 47
                                    V   -0.0520000 Isotope 51

                          Files used for pseudopotentials:
                                    Al 3|2.2|2.2|1.4|4|5|5|30:31:32U2U2
                                    Ti 3|1.8|9|10|11|30U:40:31:32(qc=5.5)
                                    V 3|1.8|1.8|0.6|12|14|16|30U:40:31:32(qc=7)

                           -------------------------------
                              k-Points For BZ Sampling
                           -------------------------------
                       MP grid size for SCF calculation is  7 12  9
                            with an offset of   0.000  0.000  0.000
                       Number of kpoints used =           192

                           -------------------------------
                               Symmetry and Constraints
                           -------------------------------

                      Maximum deviation from symmetry = 0.940008E-15     ANG

                      Number of symmetry operations   =           2
                      Number of ionic constraints     =           3
                      Point group of crystal =     3: Cs, m, m
                      Space group of crystal =     6: Pm, P -2y

             Set iprint > 1 for details on symmetry rotations/translations

                         Centre of mass is constrained
             Set iprint > 1 for details of linear ionic constraints

                         Number of cell constraints= 2
                         Cell constraints are:  1 2 3 0 5 0

                         External pressure/stress (GPa)
                          0.00000   0.00000   0.00000
                                    0.00000   0.00000
                                              0.00000

 Finite displacement calculation will use NONE scheme to initialised displaced electron density.
 Restarting Phonon calculation:  Dynamical matrices from supercells 1 to       1 recovered from .check file.

 Phonon supercell    1 (of 7)      [  0 -1  0; -1  0  0;  0  0 -2]:      22.55s
 -------------------------------------------------------------------------------

 Phonon supercell    2 (of 7)      [  0  0  1;  1  0  0;  0  2  0]:      22.55s
 -------------------------------------------------------------------------------
 Perturbation    1 (of   36): Al    1 X at q=( 0.000, 0.000, 0.000):     24.94s
  Parallel strategy changed for perturbation using 96 k-points
  Data is distributed by G-vector(12-way) and k-point(32-way) and band(1-way)
  +---------------- MEMORY AND SCRATCH DISK ESTIMATES PER PROCESS --------------+
  |                                                     Memory          Disk    |
  | Baseline code, static data and system overhead      591.0 MB         0.0 MB |
  | BLAS internal memory storage                          0.0 MB         0.0 MB |
  | Model and support data                              826.6 MB         0.0 MB |
  | Finite displacement phonon requirements             121.7 MB         0.0 MB |
  |                                               ----------------------------- |
  | Approx. total storage required per process         1539.2 MB         0.0 MB |
  |                                                                             |
  | Requirements will fluctuate during execution and may exceed these estimates |
  +-----------------------------------------------------------------------------+
 Perturbation    2 (of   36): Al    1 Y at q=( 0.000, 0.000, 0.000):    468.48s
  Parallel strategy changed for perturbation using 189 k-points
  Data is distributed by G-vector(12-way) and k-point(32-way) and band(1-way)
  +---------------- MEMORY AND SCRATCH DISK ESTIMATES PER PROCESS --------------+
  |                                                     Memory          Disk    |
  | Baseline code, static data and system overhead      591.0 MB         0.0 MB |
  | BLAS internal memory storage                          0.0 MB         0.0 MB |
  | Model and support data                              826.6 MB         0.0 MB |
  | Finite displacement phonon requirements             134.7 MB         0.0 MB |
  |                                               ----------------------------- |
  | Approx. total storage required per process         1552.2 MB         0.0 MB |
  |                                                                             |
  | Requirements will fluctuate during execution and may exceed these estimates |
  +-----------------------------------------------------------------------------+
 Perturbation    3 (of   36): Al    1 Z at q=( 0.000, 0.000, 0.000):   1248.40s
  Parallel strategy changed for perturbation using 96 k-points
  Data is distributed by G-vector(12-way) and k-point(32-way) and band(1-way)
 Perturbation    4 (of   36): Ti    1 X at q=( 0.000, 0.000, 0.000):   1684.50s
 Perturbation    5 (of   36): Ti    1 Y at q=( 0.000, 0.000, 0.000):   2166.86s
  Parallel strategy changed for perturbation using 189 k-points
  Data is distributed by G-vector(12-way) and k-point(32-way) and band(1-way)
 Perturbation    6 (of   36): Ti    1 Z at q=( 0.000, 0.000, 0.000):   3060.54s
  Parallel strategy changed for perturbation using 96 k-points
  Data is distributed by G-vector(12-way) and k-point(32-way) and band(1-way)
 Perturbation    7 (of   36): Ti    2 X at q=( 0.000, 0.000, 0.000):   3532.89s

Writing analysis data to ti64_hex_phonon.castep_bin

Writing model to ti64_hex_phonon.check
 Perturbation    8 (of   36): Ti    2 Y at q=( 0.000, 0.000, 0.000):   4046.20s
  Parallel strategy changed for perturbation using 189 k-points
  Data is distributed by G-vector(12-way) and k-point(32-way) and band(1-way)
 Perturbation    9 (of   36): Ti    2 Z at q=( 0.000, 0.000, 0.000):   4916.57s
  Parallel strategy changed for perturbation using 96 k-points
  Data is distributed by G-vector(12-way) and k-point(32-way) and band(1-way)
 Perturbation   10 (of   36): Ti    3 X at q=( 0.000, 0.000, 0.000):   5416.13s
 Perturbation   11 (of   36): Ti    3 Y at q=( 0.000, 0.000, 0.000):   5897.33s
  Parallel strategy changed for perturbation using 189 k-points
  Data is distributed by G-vector(12-way) and k-point(32-way) and band(1-way)
 Perturbation   12 (of   36): Ti    3 Z at q=( 0.000, 0.000, 0.000):   6768.99s
  Parallel strategy changed for perturbation using 96 k-points
  Data is distributed by G-vector(12-way) and k-point(32-way) and band(1-way)
 Perturbation   13 (of   36): Ti    4 X at q=( 0.000, 0.000, 0.000):   7242.55s

Writing analysis data to ti64_hex_phonon.castep_bin

Writing model to ti64_hex_phonon.check
 Perturbation   14 (of   36): Ti    4 Y at q=( 0.000, 0.000, 0.000):   7758.88s
  Parallel strategy changed for perturbation using 189 k-points
  Data is distributed by G-vector(12-way) and k-point(32-way) and band(1-way)
 Perturbation   15 (of   36): Ti    4 Z at q=( 0.000, 0.000, 0.000):   8637.60s
  Parallel strategy changed for perturbation using 96 k-points
  Data is distributed by G-vector(12-way) and k-point(32-way) and band(1-way)
 Perturbation   16 (of   36): Ti    5 X at q=( 0.000, 0.000, 0.000):   9132.57s
 Perturbation   17 (of   36): Ti    5 Y at q=( 0.000, 0.000, 0.000):   9612.98s
  Parallel strategy changed for perturbation using 189 k-points
  Data is distributed by G-vector(12-way) and k-point(32-way) and band(1-way)
 Perturbation   18 (of   36): Ti    5 Z at q=( 0.000, 0.000, 0.000):  10506.81s
  Parallel strategy changed for perturbation using 96 k-points
  Data is distributed by G-vector(12-way) and k-point(32-way) and band(1-way)
 Perturbation   19 (of   36): Ti    6 X at q=( 0.000, 0.000, 0.000):  10982.79s

Writing analysis data to ti64_hex_phonon.castep_bin

Writing model to ti64_hex_phonon.check
 Perturbation   20 (of   36): Ti    6 Y at q=( 0.000, 0.000, 0.000):  11489.69s
  Parallel strategy changed for perturbation using 189 k-points
  Data is distributed by G-vector(12-way) and k-point(32-way) and band(1-way)
 Perturbation   21 (of   36): Ti    6 Z at q=( 0.000, 0.000, 0.000):  12371.44s
  Parallel strategy changed for perturbation using 96 k-points
  Data is distributed by G-vector(12-way) and k-point(32-way) and band(1-way)
 Perturbation   22 (of   36): Ti    7 X at q=( 0.000, 0.000, 0.000):  12865.42s
 Perturbation   23 (of   36): Ti    7 Y at q=( 0.000, 0.000, 0.000):  13347.93s
  Parallel strategy changed for perturbation using 189 k-points
  Data is distributed by G-vector(12-way) and k-point(32-way) and band(1-way)
 Perturbation   24 (of   36): Ti    7 Z at q=( 0.000, 0.000, 0.000):  14219.56s
  Parallel strategy changed for perturbation using 96 k-points
  Data is distributed by G-vector(12-way) and k-point(32-way) and band(1-way)
 Perturbation   25 (of   36): Ti    8 X at q=( 0.000, 0.000, 0.000):  14693.20s

Writing analysis data to ti64_hex_phonon.castep_bin

Writing model to ti64_hex_phonon.check
 Perturbation   26 (of   36): Ti    8 Y at q=( 0.000, 0.000, 0.000):  15207.63s
  Parallel strategy changed for perturbation using 189 k-points
  Data is distributed by G-vector(12-way) and k-point(32-way) and band(1-way)
 Perturbation   27 (of   36): Ti    8 Z at q=( 0.000, 0.000, 0.000):  16067.38s
  Parallel strategy changed for perturbation using 96 k-points
  Data is distributed by G-vector(12-way) and k-point(32-way) and band(1-way)
 Perturbation   28 (of   36): Ti    9 X at q=( 0.000, 0.000, 0.000):  16563.96s
 Perturbation   29 (of   36): Ti    9 Y at q=( 0.000, 0.000, 0.000):  17047.27s
  Parallel strategy changed for perturbation using 189 k-points
  Data is distributed by G-vector(12-way) and k-point(32-way) and band(1-way)
 Perturbation   30 (of   36): Ti    9 Z at q=( 0.000, 0.000, 0.000):  17889.90s
  Parallel strategy changed for perturbation using 96 k-points
  Data is distributed by G-vector(12-way) and k-point(32-way) and band(1-way)
 Perturbation   31 (of   36): Ti   10 X at q=( 0.000, 0.000, 0.000):  18366.73s

Writing analysis data to ti64_hex_phonon.castep_bin

Writing model to ti64_hex_phonon.check
 Perturbation   32 (of   36): Ti   10 Y at q=( 0.000, 0.000, 0.000):  18864.85s
  Parallel strategy changed for perturbation using 189 k-points
  Data is distributed by G-vector(12-way) and k-point(32-way) and band(1-way)
 Perturbation   33 (of   36): Ti   10 Z at q=( 0.000, 0.000, 0.000):  19748.29s
  Parallel strategy changed for perturbation using 96 k-points
  Data is distributed by G-vector(12-way) and k-point(32-way) and band(1-way)
 Perturbation   34 (of   36): V     1 X at q=( 0.000, 0.000, 0.000):  20242.82s
 Perturbation   35 (of   36): V     1 Y at q=( 0.000, 0.000, 0.000):  20751.31s
  Parallel strategy changed for perturbation using 189 k-points
  Data is distributed by G-vector(12-way) and k-point(32-way) and band(1-way)
 Perturbation   36 (of   36): V     1 Z at q=( 0.000, 0.000, 0.000):  21636.40s
  Parallel strategy changed for perturbation using 96 k-points
  Data is distributed by G-vector(12-way) and k-point(32-way) and band(1-way)

 Phonon supercell    3 (of 7)      [  0  1  1;  0 -1  1;  1  0  0]:   22130.38s
 -------------------------------------------------------------------------------
 Perturbation    1 (of   36): Al    1 X at q=( 0.000, 0.000, 0.000):  22133.15s
  Parallel strategy changed for perturbation using 128 k-points
  Data is distributed by G-vector(12-way) and k-point(32-way) and band(1-way)
  +---------------- MEMORY AND SCRATCH DISK ESTIMATES PER PROCESS --------------+
  |                                                     Memory          Disk    |
  | Baseline code, static data and system overhead      591.0 MB         0.0 MB |
  | BLAS internal memory storage                          0.0 MB         0.0 MB |
  | Model and support data                              826.6 MB         0.0 MB |
  | Finite displacement phonon requirements             135.0 MB         0.0 MB |
  |                                               ----------------------------- |
  | Approx. total storage required per process         1552.6 MB         0.0 MB |
  |                                                                             |
  | Requirements will fluctuate during execution and may exceed these estimates |
  +-----------------------------------------------------------------------------+

Writing analysis data to ti64_hex_phonon.castep_bin

Writing model to ti64_hex_phonon.check
 Perturbation    2 (of   36): Al    1 Y at q=( 0.000, 0.000, 0.000):  22689.74s
  Parallel strategy changed for perturbation using 224 k-points
  Data is distributed by G-vector(12-way) and k-point(32-way) and band(1-way)
  +---------------- MEMORY AND SCRATCH DISK ESTIMATES PER PROCESS --------------+
  |                                                     Memory          Disk    |
  | Baseline code, static data and system overhead      591.0 MB         0.0 MB |
  | BLAS internal memory storage                          0.0 MB         0.0 MB |
  | Model and support data                              826.6 MB         0.0 MB |
  | Finite displacement phonon requirements             151.8 MB         0.0 MB |
  |                                               ----------------------------- |
  | Approx. total storage required per process         1569.4 MB         0.0 MB |
  |                                                                             |
  | Requirements will fluctuate during execution and may exceed these estimates |
  +-----------------------------------------------------------------------------+
 Perturbation    3 (of   36): Al    1 Z at q=( 0.000, 0.000, 0.000):  23583.50s
  Parallel strategy changed for perturbation using 128 k-points
[...]
 +    25       6.690299   a                                                   + 
 +    26       6.864514   a                                                   + 
 +    27       6.998383   b                                                   + 
 +    28       7.331573   b                                                   + 
 +    29       7.449534   b                                                   + 
 +    30       7.617953   b                                                   + 
 +    31       7.712845   a                                                   + 
 +    32       7.717189   b                                                   + 
 +    33       7.828635   b                                                   + 
 +    34       7.978220   b                                                   + 
 +    35       8.278563   b                                                   + 
 +    36       8.968608   b                                                   + 
 + .......................................................................... +
 +        Character table from group theory analysis of eigenvectors          +
 +                           Point Group =   3, Cs                            +
 + .......................................................................... +
 +  Rep  Mul |    E   m                                                       +
 +           | --------                                                       +
 + a      12 |    1  -1                                                       +
 + b      24 |    1   1                                                       +
 + -------------------------------------------------------------------------- +
 +  q-pt=   23 (  0.000000  0.000000  0.500000)     0.0434782609              +
 + -------------------------------------------------------------------------- +
 +  Acoustic sum rule correction <   0.064623 THz applied                     +
 +     N      Frequency irrep.                                                + 
 +                 (THz)                                                      + 
 +                                                                            +
 +     1       2.558540   a                                                   + 
 +     2       2.622941   b                                                   + 
 +     3       2.888966   a                                                   + 
 +     4       3.034611   b                                                   + 
 +     5       3.754547   a                                                   + 
 +     6       3.843681   a                                                   + 
 +     7       4.449933   b                                                   + 
 +     8       4.624984   a                                                   + 
 +     9       4.762837   a                                                   + 
 +    10       4.825223   a                                                   + 
 +    11       4.906178   b                                                   + 
 +    12       5.042742   b                                                   + 
 +    13       5.625785   b                                                   + 
 +    14       5.673138   b                                                   + 
 +    15       5.874396   b                                                   + 
 +    16       5.894536   b                                                   + 
 +    17       5.943157   a                                                   + 
 +    18       6.159597   b                                                   + 
 +    19       6.277759   b                                                   + 
 +    20       6.312771   a                                                   + 
 +    21       6.344000   b                                                   + 
 +    22       6.441452   b                                                   + 
 +    23       6.679979   b                                                   + 
 +    24       6.690537   a                                                   + 
 +    25       6.799928   b                                                   + 
 +    26       6.850725   a                                                   + 
 +    27       7.034248   b                                                   + 
 +    28       7.046048   b                                                   + 
 +    29       7.174096   b                                                   + 
 +    30       7.506259   b                                                   + 
 +    31       7.716129   a                                                   + 
 +    32       7.719052   b                                                   + 
 +    33       7.796768   b                                                   + 
 +    34       8.016840   b                                                   + 
 +    35       8.225061   b                                                   + 
 +    36       8.814420   b                                                   + 
 + .......................................................................... +
 +        Character table from group theory analysis of eigenvectors          +
 +                           Point Group =   3, Cs                            +
 + .......................................................................... +
 +  Rep  Mul |    E   m                                                       +
 +           | --------                                                       +
 + a      12 |    1  -1                                                       +
 + b      24 |    1   1                                                       +
 ==============================================================================

 ******************** Symmetrised Forces ********************
 *                                                          *
 *               Cartesian components (eV/A)                *
 * -------------------------------------------------------- *
 *                         x            y            z      *
 *                                                          *
 * Al              1     -0.00025      0.00000      0.00160 *
 * Ti              1     -0.00185      0.00000     -0.00295 *
 * Ti              2      0.00373     -0.00000     -0.00405 *
 * Ti              3      0.00021      0.00000     -0.00582 *
 * Ti              4      0.00044      0.00000     -0.00407 *
 * Ti              5     -0.00038      0.00000      0.00196 *
 * Ti              6      0.00148      0.00000      0.01350 *
 * Ti              7     -0.00025      0.00000     -0.00024 *
 * Ti              8     -0.00422      0.00000     -0.00225 *
 * Ti              9      0.00068     -0.00000     -0.00497 *
 * Ti             10     -0.00174      0.00000     -0.00145 *
 * V               1      0.00215      0.00000      0.00875 *
 *                                                          *
 ************************************************************

 *********** Symmetrised Stress Tensor ***********
 *                                               *
 *          Cartesian components (GPa)           *
 * --------------------------------------------- *
 *             x             y             z     *
 *                                               *
 *  x     -0.378773      0.000000     -0.028681  *
 *  y      0.000000      0.361090      0.000000  *
 *  z     -0.028681      0.000000      0.010532  *
 *                                               *
 *  Pressure:    0.0024                          *
 *                                               *
 *************************************************

 Pseudo atomic calculation performed for Al 3s2 3p1

 Converged in 22 iterations to a total energy of -107.1308 eV

 Pseudo atomic calculation performed for Ti 3s2 3p6 3d2 4s2

 Converged in 51 iterations to a total energy of -1587.0236 eV

 Pseudo atomic calculation performed for V 3s2 3p6 3d3 4s2

 Converged in 52 iterations to a total energy of -2065.7874 eV
Charge spilling parameter for spin component 1 = 0.08%

            Orbital Populations       
     Ion    Atom   Orbital             Charge
  -------------------------------------------
     Al     1      S                    0.907
     Al     1      Px                   0.670
     Al     1      Py                   0.665
     Al     1      Pz                   0.677
     Ti     1      S                    2.004
     Ti     1      Px                   2.007
     Ti     1      Py                   2.007
     Ti     1      Pz                   2.006
     Ti     1      S                    0.262
     Ti     1      Dzz                  0.587
     Ti     1      Dzy                  0.501
     Ti     1      Dzx                  0.502
     Ti     1      Dxx-yy               0.564
     Ti     1      Dxy                  0.618
     Ti     1      Px                   0.306
     Ti     1      Py                   0.332
     Ti     1      Pz                   0.336
     Ti     2      S                    2.000
     Ti     2      Px                   2.003
     Ti     2      Py                   2.003
     Ti     2      Pz                   2.004
     Ti     2      S                    0.299
     Ti     2      Dzz                  0.494
     Ti     2      Dzy                  0.587
     Ti     2      Dzx                  0.580
     Ti     2      Dxx-yy               0.458
     Ti     2      Dxy                  0.481
     Ti     2      Px                   0.369
     Ti     2      Py                   0.349
     Ti     2      Pz                   0.332
     Ti     3      S                    2.005
     Ti     3      Px                   2.007
     Ti     3      Py                   2.007
     Ti     3      Pz                   2.006
     Ti     3      S                    0.258
     Ti     3      Dzz                  0.586
     Ti     3      Dzy                  0.512
     Ti     3      Dzx                  0.492
     Ti     3      Dxx-yy               0.588
     Ti     3      Dxy                  0.615
     Ti     3      Px                   0.312
     Ti     3      Py                   0.315
     Ti     3      Pz                   0.334
     Ti     4      S                    2.004
     Ti     4      Px                   2.007
     Ti     4      Py                   2.007
     Ti     4      Pz                   2.006
     Ti     4      S                    0.254
     Ti     4      Dzz                  0.592
     Ti     4      Dzy                  0.508
     Ti     4      Dzx                  0.517
     Ti     4      Dxx-yy               0.622
     Ti     4      Dxy                  0.554
     Ti     4      Px                   0.310
     Ti     4      Py                   0.279
     Ti     4      Pz                   0.325
     Ti     5      S                    2.002
     Ti     5      Px                   2.004
     Ti     5      Py                   2.004
     Ti     5      Pz                   2.006
     Ti     5      S                    0.296
     Ti     5      Dzz                  0.461
     Ti     5      Dzy                  0.636
     Ti     5      Dzx                  0.656
     Ti     5      Dxx-yy               0.430
     Ti     5      Dxy                  0.462
     Ti     5      Px                   0.370
     Ti     5      Py                   0.362
     Ti     5      Pz                   0.286
     Ti     6      S                    2.004
     Ti     6      Px                   2.007
     Ti     6      Py                   2.007
     Ti     6      Pz                   2.006
     Ti     6      S                    0.245
     Ti     6      Dzz                  0.619
     Ti     6      Dzy                  0.480
     Ti     6      Dzx                  0.503
     Ti     6      Dxx-yy               0.610
     Ti     6      Dxy                  0.589
     Ti     6      Px                   0.295
     Ti     6      Py                   0.274
     Ti     6      Pz                   0.329
     Ti     7      S                    2.005
     Ti     7      Px                   2.008
     Ti     7      Py                   2.008
     Ti     7      Pz                   2.007
     Ti     7      S                    0.270
     Ti     7      Dzz                  0.585
     Ti     7      Dzy                  0.504
     Ti     7      Dzx                  0.503
     Ti     7      Dxx-yy               0.605
     Ti     7      Dxy                  0.607
     Ti     7      Px                   0.309
     Ti     7      Py                   0.310
     Ti     7      Pz                   0.332
     Ti     8      S                    2.001
     Ti     8      Px                   2.003
     Ti     8      Py                   2.003
     Ti     8      Pz                   2.005
     Ti     8      S                    0.293
     Ti     8      Dzz                  0.490
     Ti     8      Dzy                  0.617
     Ti     8      Dzx                  0.596
     Ti     8      Dxx-yy               0.477
     Ti     8      Dxy                  0.443
     Ti     8      Px                   0.358
     Ti     8      Py                   0.363
     Ti     8      Pz                   0.334
     Ti     9      S                    2.005
     Ti     9      Px                   2.007
     Ti     9      Py                   2.007
     Ti     9      Pz                   2.007
     Ti     9      S                    0.256
     Ti     9      Dzz                  0.572
     Ti     9      Dzy                  0.524
     Ti     9      Dzx                  0.498
     Ti     9      Dxx-yy               0.600
     Ti     9      Dxy                  0.610
     Ti     9      Px                   0.299
     Ti     9      Py                   0.313
     Ti     9      Pz                   0.338
     Ti    10      S                    2.005
     Ti    10      Px                   2.008
     Ti    10      Py                   2.007
     Ti    10      Pz                   2.007
     Ti    10      S                    0.256
     Ti    10      Dzz                  0.598
     Ti    10      Dzy                  0.512
     Ti    10      Dzx                  0.514
     Ti    10      Dxx-yy               0.596
     Ti    10      Dxy                  0.594
     Ti    10      Px                   0.298
     Ti    10      Py                   0.290
     Ti    10      Pz                   0.323
      V     1      S                    2.002
      V     1      Px                   2.004
      V     1      Py                   2.004
      V     1      Pz                   2.004
      V     1      Dzz                  0.895
      V     1      Dzy                  0.622
      V     1      Dzx                  0.658
      V     1      Dxx-yy               0.832
      V     1      Dxy                  0.797
      V     1      S                    0.323
      V     1      Px                   0.297
      V     1      Py                   0.292
      V     1      Pz                   0.321
  -------------------------------------------
                           Total:     136.000
  -------------------------------------------

     Atomic Populations (Mulliken)
     -----------------------------
Species          Ion     s       p       d       f      Total   Charge (e)
==========================================================================
  Al              1     0.907   2.012   0.000   0.000   2.919     0.081
  Ti              1     2.267   6.994   2.772   0.000  12.032    -0.032
  Ti              2     2.299   7.060   2.600   0.000  11.959     0.041
  Ti              3     2.263   6.981   2.794   0.000  12.038    -0.038
  Ti              4     2.258   6.934   2.792   0.000  11.985     0.015
  Ti              5     2.298   7.031   2.644   0.000  11.973     0.027
  Ti              6     2.249   6.917   2.801   0.000  11.968     0.032
  Ti              7     2.275   6.972   2.804   0.000  12.051    -0.051
  Ti              8     2.293   7.066   2.623   0.000  11.983     0.017
  Ti              9     2.261   6.972   2.803   0.000  12.036    -0.036
  Ti             10     2.261   6.932   2.815   0.000  12.007    -0.007
  V               1     2.325   6.922   3.803   0.000  13.050    -0.050
==========================================================================

                 Bond                   Population      Length (A)
======================================================================
             Ti 4  -- V 1                    0.28        2.56677
             Ti 1  -- V 1                    0.70        2.59779
             Ti 9  -- Ti 10                  0.65        2.60513
             Ti 6  -- Ti 10                  0.19        2.61738
             Ti 6  -- Ti 7                   0.57        2.62596
             Ti 7  -- Ti 9                   0.12        2.62829
             Ti 3  -- Ti 4                   0.60        2.64271
             Ti 1  -- Ti 3                   0.14        2.66155
             Ti 6  -- V 1                    0.01        2.77468
              Al 1 -- Ti 5                   0.56        2.78163
             Ti 3  -- Ti 9                  -0.21        2.78398
             Ti 1  -- Ti 7                  -0.16        2.78559
             Ti 4  -- Ti 10                 -0.14        2.78626
             Ti 2  -- Ti 8                   0.48        2.78767
             Ti 1  -- Ti 5                   0.26        2.90827
             Ti 8  -- V 1                    0.21        2.91549
              Al 1 -- Ti 1                   0.16        2.91879
             Ti 5  -- V 1                    0.10        2.93041
              Al 1 -- Ti 6                   0.28        2.93971
             Ti 4  -- Ti 5                  -0.07        2.94723
             Ti 7  -- Ti 8                   0.08        2.94989
              Al 1 -- Ti 4                   0.26        2.95062
             Ti 5  -- Ti 7                   0.24        2.95435
             Ti 2  -- Ti 10                  0.16        2.95528
             Ti 2  -- Ti 6                   0.14        2.95928
              Al 1 -- Ti 7                   0.21        2.96263
              Al 1 -- Ti 9                   0.18        2.96468
             Ti 2  -- Ti 7                   0.13        2.96579
             Ti 2  -- Ti 3                   0.13        2.96657
             Ti 6  -- Ti 8                   0.17        2.96726
             Ti 1  -- Ti 8                   0.04        2.97045
             Ti 5  -- Ti 9                   0.22        2.97074
             Ti 5  -- Ti 6                  -0.11        2.97331
              Al 1 -- Ti 3                   0.18        2.97425
             Ti 2  -- Ti 9                   0.12        2.97432
              Al 1 -- Ti 10                  0.28        2.97510
             Ti 3  -- Ti 5                   0.23        2.97893
             Ti 3  -- Ti 8                   0.07        2.97913
             Ti 5  -- Ti 10                 -0.00        2.98302
              Al 1 -- V 1                    0.27        2.98475
             Ti 8  -- Ti 9                   0.08        2.98512
             Ti 8  -- Ti 10                  0.17        2.98527
             Ti 1  -- Ti 2                   0.07        2.98567
             Ti 2  -- V 1                    0.20        2.99210
======================================================================


Writing analysis data to ti64_hex_phonon.castep_bin

Writing model to ti64_hex_phonon.check
 
 A BibTeX formatted list of references used in this run has been written to 
 ti64_hex_phonon.bib
 
Initialisation time =     20.92 s
Calculation time    =  19099.09 s
Finalisation time   =      3.47 s
Total time          =  19123.47 s
Peak Memory Use     = 2824284 kB
 
Overall parallel efficiency rating: Satisfactory (60%)
 
Data was distributed by:-
G-vector (12-way); efficiency rating: Satisfactory (60%)
k-point (32-way); efficiency rating: Excellent (99%)
