 +-------------------------------------------------+
 |                                                 |
 |      CCC   AA    SSS  TTTTT  EEEEE  PPPP        |
 |     C     A  A  S       T    E      P   P       |
 |     C     AAAA   SS     T    EEE    PPPP        |
 |     C     A  A     S    T    E      P           |
 |      CCC  A  A  SSS     T    EEEEE  P           |
 |                                                 |
 +-------------------------------------------------+
 |                                                 |
 | Welcome to Academic Release CASTEP version 24.1 |
 | Ab Initio Total Energy Program                  |
 |                                                 |
 | Authors:                                        |
 | M. Segall, M. Probert, C. Pickard, P. Hasnip,   |
 | S. Clark, K. Refson, J. R. Yates,               |
 | A. Bartok-Partay, M. Payne                      |
 |                                                 |
 | Contributors:                                   |
 | P. Lindan, P. Haynes, J. White, V. Milman,      |
 | N. Govind, M. Gibson, P. Tulip, V. Cocula,      |
 | B. Montanari, D. Quigley, M. Glover,            |
 | L. Bernasconi, A. Perlov, M. Plummer,           |
 | E. McNellis, J. Meyer, J. Gale, D. Jochym       |
 | J. Aarons, B. Walker, R. Gillen, D. Jones       |
 | T. Green, I. J. Bush, C. J. Armstrong,          |
 | E. J. Higgins, E. L. Brown, M. S. McFly,        |
 | J. Wilkins, B-C. Shih, P. J. P. Byrne,          |
 | R. J. Maurer, J. C. Womack, J. Dziedzic,        |
 | L. LeBlanc, T. K. Stenczel, J. Kermode,         |
 | S. Sturniolo, B. Shi, B. Durham, M. Evans,      |
 | M. J. Smith, A. Tamerus, Z. Hawkhead,           |
 | V. Ravindran, T. Hollins, S. A. Joyce,          |
 | R. T. Strong, A. M. Reilly                      |
 |                                                 |
 | Copyright (c) 2000 - 2023                       |
 |                                                 |
 |     Distributed under license from Cambridge    |
 |     Enterprise for academic use only.           |
 |                                                 |
 | Please cite                                     |
 |                                                 |
 |     "First principles methods using CASTEP"     |
 |                                                 |
 |         Zeitschrift fuer Kristallographie       |
 |           220(5-6) pp. 567-570 (2005)           |
 |                                                 |
 | S. J. Clark, M. D. Segall, C. J. Pickard,       |
 | P. J. Hasnip, M. J. Probert, K. Refson,         |
 | M. C. Payne                                     |
 |                                                 |
 |       in all publications arising from          |
 |              your use of CASTEP                 |
 |                                                 |
 +-------------------------------------------------+
 |                                                 |
 |              http://www.castep.org              |
 |                                                 |
 +-------------------------------------------------+



 Compiled for linux_x86_64_gfortran10 on Tue, 02 May 2023 15:31:46 +0100
 from code version db08e394c+  default  Mon May 1 16:40:39 2023 +0100
 Compiler: GNU Fortran 10.2.0; Optimisation: fast
 Comms   : Open MPI v4.0.5
 MATHLIBS: openblas (LAPACK version 3.9.0)
 FFT Lib : fftw3 version fftw-3.3.8-sse2-avx-avx2-avx2_128
 Fundamental constants values: CODATA 2018

 Run started: Wed, 10 Apr 2024 12:08:07 +0100
 +-------------------------------------------------+
 |                                                 |
 |  D D D D    F F F F F  P P P P     T T T T T    |
 |  D       D  F          P       P       T        |
 |  D       D  F F F F    P P P P         T        |
 |  D       D  F          P               T        |
 |  D D D D    F          P               T        |
 |                                                 |
 +-------------------------------------------------+
 |                                                 |
 | Welcome to Castep Linear Response (DFPT)        |
 |                                                 |
 | Copyright (c) 2006 - 2023                       |
 |                                                 |
 | Please cite the following publications in all   |
 | work arising from your use of CASTEP LR.        |
 |                                                 |
 | K. Refson, S. J. Clark and P. R. Tulip          |
 | Variational density functional perturbation     |
 | theory for dielectrics and lattice dynamics     |
 | Phys. Rev. B 73(15), 155114 (2006)              |
 +-------------------------------------------------+

Reading continuation data from model file ti64_bcc_phonon.check

 Atomic calculation performed for Al: 1s2 2s2 2p6 3s2 3p1

 Converged in 54 iterations to an ae energy of -6603.783 eV

   ============================================================                
   | Pseudopotential Report - Date of generation 10-04-2024   |                
   ------------------------------------------------------------                
   | Element: Al Ionic charge:  3.00 Level of theory: PBE     |                
   | Atomic Solver: Koelling-Harmon                           |                
   |                                                          |                
   |               Reference Electronic Structure             |                
   |         Orbital         Occupation         Energy        |                
   |            3s              2.000           -0.285        |                
   |            3p              1.000           -0.100        |                
   |                                                          |                
   |                 Pseudopotential Definition               |                
   |        Beta     l      e      Rc     scheme   norm       |                
   |          1      0   -0.285   2.192     qc      0         |                
   |          2      0    0.250   2.192     qc      0         |                
   |          3      1   -0.100   2.192     qc      0         |                
   |          4      1    0.250   2.192     qc      0         |                
   |          5      2    0.000   2.000     qc      0         |                
   |          6      2    0.250   2.000     qc      0         |                
   |         loc     3    0.000   2.192     pn      0         |                
   |                                                          |                
   | Augmentation charge Rinner = 1.398                       |                
   | Partial core correction Rc = 1.398                       |                
   ------------------------------------------------------------                
   | "3|2.2|2.2|1.4|4|5|5|30:31:32U2U2"                       |                
   ------------------------------------------------------------                
   |      Author: Chris J. Pickard, Cambridge University      |                
   ============================================================                

 Atomic calculation performed for Ti: 1s2 2s2 2p6 3s2 3p6 3d2 4s2

 Converged in 79 iterations to an ae energy of -23226.658 eV

   ============================================================                
   | Pseudopotential Report - Date of generation 10-04-2024   |                
   ------------------------------------------------------------                
   | Element: Ti Ionic charge: 12.00 Level of theory: PBE     |                
   | Atomic Solver: Koelling-Harmon                           |                
   |                                                          |                
   |               Reference Electronic Structure             |                
   |         Orbital         Occupation         Energy        |                
   |            3s              2.000           -2.302        |                
   |            3p              6.000           -1.428        |                
   |            4s              2.000           -0.164        |                
   |            3d              2.000           -0.157        |                
   |                                                          |                
   |                 Pseudopotential Definition               |                
   |        Beta     l      e      Rc     scheme   norm       |                
   |          1      0   -2.302   1.793     qc      0         |                
   |          2      0   -0.164   1.793     qc      0         |                
   |          3      0    0.250   1.793     qc      0         |                
   |          4      1   -1.428   1.793     qc      0         |                
   |          5      1    0.250   1.793     qc      0         |                
   |          6      2   -0.157   1.793     qc      0         |                
   |          7      2    0.250   1.793     qc      0         |                
   |         loc     3    0.000   1.793     pn      0         |                
   |                                                          |                
   | Augmentation charge Rinner = 1.263                       |                
   | Partial core correction Rc = 1.263                       |                
   ------------------------------------------------------------                
   | "3|1.8|9|10|11|30U:40:31:32(qc=5.5)"                     |                
   ------------------------------------------------------------                
   |      Author: Chris J. Pickard, Cambridge University      |                
   ============================================================                

 Atomic calculation performed for V: 1s2 2s2 2p6 3s2 3p6 3d3 4s2

 Converged in 81 iterations to an ae energy of -25823.733 eV

   ============================================================                
   | Pseudopotential Report - Date of generation 10-04-2024   |                
   ------------------------------------------------------------                
   | Element: V Ionic charge: 13.00 Level of theory: PBE      |                
   | Atomic Solver: Koelling-Harmon                           |                
   |                                                          |                
   |               Reference Electronic Structure             |                
   |         Orbital         Occupation         Energy        |                
   |            3s              2.000           -2.581        |                
   |            3p              6.000           -1.618        |                
   |            3d              3.000           -0.190        |                
   |            4s              2.000           -0.173        |                
   |                                                          |                
   |                 Pseudopotential Definition               |                
   |        Beta     l      e      Rc     scheme   norm       |                
   |          1      0   -2.581   1.803     qc      0         |                
   |          2      0   -0.173   1.803     qc      0         |                
   |          3      0    0.250   1.803     qc      0         |                
   |          4      1   -1.618   1.803     qc      0         |                
   |          5      1    0.250   1.803     qc      0         |                
   |          6      2   -0.190   1.803     qc      0         |                
   |          7      2    0.250   1.803     qc      0         |                
   |         loc     3    0.000   1.803     pn      0         |                
   |                                                          |                
   | Augmentation charge Rinner = 0.600                       |                
   | Partial core correction Rc = 0.600                       |                
   ------------------------------------------------------------                
   | "3|1.8|1.8|0.6|12|14|16|30U:40:31:32(qc=7)"              |                
   ------------------------------------------------------------                
   |      Author: Chris J. Pickard, Cambridge University      |                
   ============================================================                

 Pseudo atomic calculation performed for Al 3s2 3p1

 Converged in 22 iterations to a total energy of -107.1308 eV

 Pseudo atomic calculation performed for Ti 3s2 3p6 3d2 4s2

 Converged in 51 iterations to a total energy of -1587.0236 eV

 Pseudo atomic calculation performed for V 3s2 3p6 3d3 4s2

 Converged in 52 iterations to a total energy of -2065.7874 eV
Initialising basis set for model.
Reinitialising basis set for current geometry.
Continuing from previous run with ground state wavefunction.
Continuing from previous run with ground state density.
 WARNING: phonon fine_frequency data in check file HAS BEEN DISCARDED.
          because PHONON_FINE_KPOINT_LIST changed on continuation.
 WARNING: phonon thermal ADP data in check file HAS BEEN DISCARDED.
 Calculation parallelised over 64 processes.
 Data is distributed by k-point(64-way)

 ************************************ Title ************************************
 

 ***************************** General Parameters ******************************
  
 output verbosity                               : normal  (1)
 continuing from                                : ti64_bcc_phonon.check
 write checkpoint data to                       : ti64_bcc_phonon.check
 type of calculation                            : phonon calculation
 stress calculation                             : on
 density difference calculation                 : off
 electron localisation func (ELF) calculation   : off
 Hirshfeld analysis                             : off
 polarisation (Berry phase) analysis            : off
 molecular orbital projected DOS                : off
 deltaSCF calculation                           : off
 unlimited duration calculation
 timing information                             : on
 memory usage estimate                          : on
 write extra output files                       : on
 write final potential to formatted file        : off
 write final density to formatted file          : off
 write structure in CELL formatted file         : on
 write BibTeX reference list                    : on
 write OTFG pseudopotential files               : on
 write electrostatic potential file             : on
 write bands file                               : on
 checkpoint writing                             : both castep_bin and check files
  
 output         length unit                     : A
 output           mass unit                     : amu
 output           time unit                     : ps
 output         charge unit                     : e
 output           spin unit                     : hbar/2
 output         energy unit                     : eV
 output          force unit                     : eV/A
 output       velocity unit                     : A/ps
 output       pressure unit                     : GPa
 output     inv_length unit                     : 1/A
 output      frequency unit                     : THz
 output force constant unit                     : eV/A**2
 output         volume unit                     : A**3
 output   IR intensity unit                     : (D/A)**2/amu
 output         dipole unit                     : D
 output         efield unit                     : eV/A/e
 output        entropy unit                     : J/mol/K
 output    efield chi2 unit                     : pm/V
  
 wavefunctions paging                           : none
 random number generator seed                   :  150417499
 data distribution                              : k-point only
 optimization strategy                          : maximize speed(+++)

 *********************** Exchange-Correlation Parameters ***********************
  
 using functional                               : Perdew Burke Ernzerhof
 relativistic treatment                         : Koelling-Harmon
 DFT+D: Semi-empirical dispersion correction    : off

 ************************* Pseudopotential Parameters **************************
  
 pseudopotential representation                 : reciprocal space
 <beta|phi> representation                      : reciprocal space
 spin-orbit coupling                            : off

 **************************** Basis Set Parameters *****************************
  
 plane wave basis set cut-off                   :   800.0000   eV
 size of standard grid                          :     2.0000
 size of   fine   grid                          :     4.0000
 size of   fine   gmax                          :    57.9620   1/A
 largest prime factor in FFT                    :          5
 finite basis set correction                    : automatic
 number of sample energies                      :          3
           sample  spacing                      :     5.0000   eV

 **************************** Electronic Parameters ****************************
  
 number of  electrons                           :  88.00    
 net charge of system                           :  0.000    
 treating system as non-spin-polarized
 number of bands                                :         79

 ********************* Electronic Minimization Parameters **********************
  
 Method: Treating system as metallic with density mixing treatment of electrons,
         and number of  SD  steps               :          1
         and number of  CG  steps               :          4
  
 total energy / atom convergence tol.           : 0.1000E-08   eV
 eigen-energy convergence tolerance             : 0.1013E-09   eV
 max force / atom convergence tol.              : ignored
 convergence tolerance window                   :          3   cycles
 max. number of SCF cycles                      :         30
 number of fixed-spin iterations                :         10
 smearing scheme                                : Gaussian
 smearing width                                 : 0.5000E-01   eV
 Fermi energy convergence tolerance             : 0.2721E-13   eV
 periodic dipole correction                     : NONE

 ************************** Density Mixing Parameters **************************
  
 density-mixing scheme                          : Pulay
 max. length of mixing history                  :         20
 charge density mixing amplitude                : 0.8000    
 cut-off energy for mixing                      :  800.0       eV
 charge density mixing g-vector                 :  1.500       1/A

 *********************** Population Analysis Parameters ************************
  
 Population analysis with cutoff                :  3.000       A
 Population analysis output                     : summary and pdos components

 ****************************** Phonon Parameters ******************************
  
 phonon calculation method                      : finite displacement
 finite displacement amplitude                  : 0.1000E-01   A
 fine phonon calculation method                 : interpolation
 non-periodic force constant method             : Weighted cumulant sum
 force constant cutoff scale factor             :     1.0000
 LO/TO splitting term                           : not included
 acoustic phonon sum rule                       : correct D(q) in recip-space
 Born effective charges                         : not calculated
 Raman intensities                              : not calculated
 phonon extra output                            : real-space force constants
 phonon k-points                                : use reduced set
 phonon DOS                                     : not calculated
 no timed backups
 band convergence tolerance                     : 0.1000E-08   eV

 ******************************* Developer Code ********************************
  
 PARALLEL: kpoints=24 : ENDPARALLEL
 no_improve_wvfn

 *******************************************************************************
  

                           -------------------------------
                                      Unit Cell
                           -------------------------------
        Real Lattice(A)                      Reciprocal Lattice(1/A)
    -3.2087965     3.2087965     3.2087965        0.000000000   0.979056362   0.979056362
     3.2087965    -3.2087965     3.2087965        0.979056362   0.000000000   0.979056362
     3.2087965     3.2087965    -3.2087965        0.979056362   0.979056362   0.000000000

                       Lattice parameters(A)       Cell Angles
                    a =      5.557799          alpha =  109.471221
                    b =      5.557799          beta  =  109.471221
                    c =      5.557799          gamma =  109.471221

                       Current cell volume =           132.155891       A**3
                                   density =             2.762836   AMU/A**3
                                           =             4.587797     g/cm^3

                           -------------------------------
                                     Cell Contents
                           -------------------------------
                         Total number of ions in cell =    8
                      Total number of species in cell =    3
                        Max number of any one species =    6

            xxxxxxxxxxxxxxxxxxxxxxxxxxxxxxxxxxxxxxxxxxxxxxxxxxxxxxxxxxxx
            x  Element    Atom        Fractional coordinates of atoms  x
            x            Number           u          v          w      x
            x----------------------------------------------------------x
            x  Al           1         0.000000   0.000000   0.000000   x 
            x  Ti           1        -0.000000   0.500000  -0.000000   x 
            x  Ti           2         0.000000   0.500000   0.500000   x 
            x  Ti           3         0.500000  -0.000000   0.000000   x 
            x  Ti           4         0.500000   0.000000   0.500000   x 
            x  Ti           5         0.500000   0.500000   0.000000   x 
            x  Ti           6         0.500000   0.500000   0.500000   x 
            x  V            1         0.000000   0.000000   0.500000   x 
            xxxxxxxxxxxxxxxxxxxxxxxxxxxxxxxxxxxxxxxxxxxxxxxxxxxxxxxxxxxx


                         No user defined ionic velocities

                           -------------------------------
                                   Details of Species
                           -------------------------------

                               Mass of species in AMU
                                    Al   26.9815400
                                    Ti   47.8670000
                                    V   50.9415000

                          Electric Quadrupole Moment (Barn)
                                    Al    0.1466000 Isotope 27
                                    Ti    0.3020000 Isotope 47
                                    V   -0.0520000 Isotope 51

                          Files used for pseudopotentials:
                                    Al 3|2.2|2.2|1.4|4|5|5|30:31:32U2U2
                                    Ti 3|1.8|9|10|11|30U:40:31:32(qc=5.5)
                                    V 3|1.8|1.8|0.6|12|14|16|30U:40:31:32(qc=7)

                           -------------------------------
                              k-Points For BZ Sampling
                           -------------------------------
                       MP grid size for SCF calculation is 12 12 12
                            with an offset of   0.000  0.000  0.000
                       Number of kpoints used =           182

                           -------------------------------
                               Symmetry and Constraints
                           -------------------------------

                      Maximum deviation from symmetry = 0.512352E-07     ANG

 !-----------------------------------------------------------------------------!
 !                                                                             !
 !                     * * *      W A R N I N G     * * *                      !
 !                                                                             !
 !   Atomic positions are slightly inconsistent with symmetry operations,      !
 !   (although the discrepancy is lower than value of SYMMETRY_TOL).           !
  !   In severe cases this could lead to seriously inaccurate results.         !
 !                                                                             !
 !   It is recommended that symmetries are satisfied to a tolerance of 1e-8au  !
 !   or better. Consider one or more of the following:                         !
 !     - Adjust input so that atomic positions and symmetry are consistent.    !
 !     - Use SNAP_TO_SYMMETRY keyword in the cell file to adjust co-ordinates. !
 !     - Reduce the value of SYMMETRY_TOL in the cell file.                    !
 !     - Remove incorrect symmetry operations from .cell file.                 !
 !                                                                             !
 !-----------------------------------------------------------------------------!


                      Number of symmetry operations   =          12
                      Number of ionic constraints     =           3
                      Point group of crystal =    20: D3d, -3m, -3 2/m
                      Space group of crystal =   166: R-3m, -R 3 2"

             Set iprint > 1 for details on symmetry rotations/translations

                         Centre of mass is constrained
             Set iprint > 1 for details of linear ionic constraints

                         Number of cell constraints= 2
                         Cell constraints are:  1 1 3 4 4 6

                         External pressure/stress (GPa)
                          0.00000   0.00000   0.00000
                                    0.00000   0.00000
                                              0.00000
 Restarting Phonon calculation:  Dynamical matrices from supercells 1 to       4 recovered from .check file.
 %%%%%%%%%%%%%%%%%%%%%%%%%%%%%%%%%%%%%%%%%%%%%%%%%%%%%%%%%%%%%%%%%%%%%%%%%%%%%%%%%%%%%%%%%%%%%%%%%%%%%%%%%%%%%%%%%%%
            Force Constant matrix
 Ion XYZ  L          part  (eV/A**2)
 Supercell   1 at (0,0,0)        0.000 A                             
   1   1          6.939787         -0.523897          0.523897         -0.873669          0.899382         -0.899382
                  0.318254          0.010932         -0.010932         -0.931560          0.975553          0.899004
                 -0.088361         -0.018431          0.034456         -0.088361         -0.034456          0.018431
                 -0.931560         -0.899004         -0.975553         -0.727061         -0.697825          0.697825
   1   2         -0.523897          6.939787          0.523897          0.975553         -0.931560          0.899004
                 -0.018431         -0.088361          0.034456          0.899382         -0.873669         -0.899382
                  0.010932          0.318254         -0.010932         -0.034456         -0.088361          0.018431
                 -0.899004         -0.931560         -0.975553         -0.697825         -0.727061          0.697825
   1   3          0.523897          0.523897          6.939787         -0.975553          0.899004         -0.931560
                  0.018431          0.034456         -0.088361          0.899004         -0.975553         -0.931560
                  0.034456          0.018431         -0.088361         -0.010932         -0.010932          0.318254
                 -0.899382         -0.899382         -0.873669          0.697825          0.697825         -0.727061
   2   1         -0.873669          0.975553         -0.975553          3.574987         -0.156436          0.156436
                 -0.767088         -0.748412          0.748412         -0.014988          0.020395         -0.108063
                 -0.018420          0.091848         -0.057711         -0.438820          0.499361          0.813905
                  0.012620         -0.095299         -0.103982         -0.203951         -0.173234          0.173234
   2   2          0.899382         -0.931560          0.899004         -0.156436          4.447442          0.089870
                 -0.673985         -0.237721          0.438029         -0.011599         -0.014988          0.087324
                  0.048496         -0.047132          0.046232          0.555126         -0.394270         -0.709536
                  0.157438          0.707945          0.095299          0.095307         -0.065927          0.063031
   2   3         -0.899382          0.899004         -0.931560          0.156436          0.089870          4.447442
                  0.673985          0.438029         -0.237721          0.087324         -0.108063         -0.078538
                 -0.025498          0.089405         -0.011104          0.814089         -0.751469         -0.777730
                 -0.067328         -0.157438          0.012620         -0.095307          0.063031         -0.065927
   3   1          0.318254         -0.018431          0.018431         -0.767088         -0.673985          0.673985
                  5.166921          0.798000         -0.798000         -0.047132          0.091848          0.089405
                 -0.119832          0.202313          0.014878         -0.166995          0.003573          0.285822
                 -0.777730          0.709536          0.813905         -0.597865          0.405802         -0.405802
   3   2          0.010932         -0.088361          0.034456         -0.748412         -0.237721          0.438029
                  0.798000          2.725319          0.912967          0.048496         -0.018420         -0.025498
                  0.184505         -0.119832         -0.034397          0.020721          0.063459         -0.003573
                  0.751469         -0.394270         -0.499361          0.423728         -0.244886          0.164551
   3   3         -0.010932          0.034456         -0.088361          0.748412          0.438029         -0.237721
                 -0.798000          0.912967          2.725319          0.046232         -0.057711         -0.011104
                 -0.034397          0.014878          0.127157          0.290778         -0.020721         -0.166995
                  0.814089         -0.555126         -0.438820         -0.423728          0.164551         -0.244886
   4   1         -0.931560          0.899382          0.899004         -0.014988         -0.011599          0.087324
                 -0.047132          0.048496          0.046232          4.447442         -0.156436          0.089870
                 -0.237721         -0.673985          0.438029         -0.394270          0.555126         -0.709536
                  0.707945          0.157438          0.095299         -0.065927          0.095307          0.063031
   4   2          0.975553         -0.873669         -0.975553          0.020395         -0.014988         -0.108063
                  0.091848         -0.018420         -0.057711         -0.156436          3.574987          0.156436
                 -0.748412         -0.767088          0.748412          0.499361         -0.438820          0.813905
                 -0.095299          0.012620         -0.103982         -0.173234         -0.203951          0.173234
   4   3          0.899004         -0.899382         -0.931560         -0.108063          0.087324         -0.078538
                  0.089405         -0.025498         -0.011104          0.089870          0.156436          4.447442
                  0.438029          0.673985         -0.237721         -0.751469          0.814089         -0.777730
                 -0.157438         -0.067328          0.012620          0.063031         -0.095307         -0.065927
   5   1         -0.088361          0.010932          0.034456         -0.018420          0.048496         -0.025498
                 -0.119832          0.184505         -0.034397         -0.237721         -0.748412          0.438029
                  2.725319          0.798000          0.912967          0.063459          0.020721         -0.003573
                 -0.394270          0.751469         -0.499361         -0.244886          0.423728          0.164551
   5   2         -0.018431          0.318254          0.018431          0.091848         -0.047132          0.089405
                  0.202313         -0.119832          0.014878         -0.673985         -0.767088          0.673985
                  0.798000          5.166921         -0.798000          0.003573         -0.166995          0.285822
                  0.709536         -0.777730          0.813905          0.405802         -0.597865         -0.405802
   5   3          0.034456         -0.010932         -0.088361         -0.057711          0.046232         -0.011104
                  0.014878         -0.034397          0.127157          0.438029          0.748412         -0.237721
                  0.912967         -0.798000          2.725319         -0.020721          0.290778         -0.166995
                 -0.555126          0.814089         -0.438820          0.164551         -0.423728         -0.244886
   6   1         -0.088361         -0.034456         -0.010932         -0.438820          0.555126          0.814089
                 -0.166995          0.020721          0.290778         -0.394270          0.499361         -0.751469
                  0.063459          0.003573         -0.020721          2.725319         -0.912967         -0.798000
                 -0.237721         -0.438029          0.748412         -0.034854         -0.013251          0.035851
   6   2         -0.034456         -0.088361         -0.010932          0.499361         -0.394270         -0.751469
                  0.003573          0.063459         -0.020721          0.555126         -0.438820          0.814089
                  0.020721         -0.166995          0.290778         -0.912967          2.725319         -0.798000
                 -0.438029         -0.237721          0.748412         -0.013251         -0.034854          0.035851
   6   3          0.018431          0.018431          0.318254          0.813905         -0.709536         -0.777730
                  0.285822         -0.003573         -0.166995         -0.709536          0.813905         -0.777730
                 -0.003573          0.285822         -0.166995         -0.798000         -0.798000          5.166921
                  0.673985          0.673985         -0.767088          0.062363          0.062363         -0.061698
   7   1         -0.931560         -0.899004         -0.899382          0.012620          0.157438         -0.067328
                 -0.777730          0.751469          0.814089          0.707945         -0.095299         -0.157438
                 -0.394270          0.709536         -0.555126         -0.237721         -0.438029          0.673985
                  4.447442         -0.089870          0.156436         -0.066360         -0.060480          0.113178
   7   2         -0.899004         -0.931560         -0.899382         -0.095299          0.707945         -0.157438
                  0.709536         -0.394270         -0.555126          0.157438          0.012620         -0.067328
                  0.751469         -0.777730          0.814089         -0.438029         -0.237721          0.673985
                 -0.089870          4.447442          0.156436         -0.060480         -0.066360          0.113178
   7   3         -0.975553         -0.975553         -0.873669         -0.103982          0.095299          0.012620
                  0.813905         -0.499361         -0.438820          0.095299         -0.103982          0.012620
                 -0.499361          0.813905         -0.438820          0.748412          0.748412         -0.767088
                  0.156436          0.156436          3.574987         -0.077254         -0.077254          1.098738
   8   1         -0.727061         -0.697825          0.697825         -0.203951          0.095307         -0.095307
                 -0.597865          0.423728         -0.423728         -0.065927         -0.173234          0.063031
                 -0.244886          0.405802          0.164551         -0.034854         -0.013251          0.062363
                 -0.066360         -0.060480         -0.077254          3.436894          0.173057         -0.173057
   8   2         -0.697825         -0.727061          0.697825         -0.173234         -0.065927          0.063031
                  0.405802         -0.244886          0.164551          0.095307         -0.203951         -0.095307
                  0.423728         -0.597865         -0.423728         -0.013251         -0.034854          0.062363
                 -0.060480         -0.066360         -0.077254          0.173057          3.436894         -0.173057
   8   3          0.697825          0.697825         -0.727061          0.173234          0.063031         -0.065927
                 -0.405802          0.164551         -0.244886          0.063031          0.173234         -0.065927
                  0.164551         -0.405802         -0.244886          0.035851          0.035851         -0.061698
                  0.113178          0.113178          1.098738         -0.173057         -0.173057          3.436894

 Supercell   2 at (1,0,0)        5.558 A                             
   1   1         -0.049694          0.005169          0.004357          0.020943         -0.052353          0.035183
                  0.142448          0.001671         -0.001671         -0.931560          0.975553          0.899004
                 -0.074875          0.003201          0.118056         -0.097122          0.137922          0.003089
                 -0.022868          0.014241          0.006576          0.035680          0.012026         -0.053078
   1   2          0.005169         -0.081048         -0.005169         -0.050237          0.027818         -0.036427
                 -0.003089         -0.097122         -0.137922          0.899382         -0.873669         -0.899382
                 -0.004695          0.115494          0.004695          0.137922         -0.097122          0.003089
                  0.036427          0.027818          0.050237          0.013297          0.004887         -0.013297
   1   3          0.004357         -0.005169         -0.049694          0.006576         -0.014241         -0.022868
                  0.003089         -0.137922         -0.097122          0.899004         -0.975553         -0.931560
                  0.118056         -0.003201         -0.074875         -0.001671         -0.001671          0.142448
                  0.035183          0.052353          0.020943         -0.053078         -0.012026          0.035680
   2   1          0.020943         -0.050237          0.006576          0.073183         -0.088945         -0.097671
                  0.072692          0.003706         -0.075160          0.012620          0.103982          0.095299
                  0.063207          0.151532         -0.127341         -0.438820          0.499361          0.813905
                 -0.175575          0.087536          0.277316          0.018384         -0.023331          0.023331
   2   2         -0.052353          0.027818         -0.014241         -0.088945         -0.062154          0.082675
                  0.001283         -0.059062          0.017859          0.067328          0.012620         -0.157438
                  0.081558          0.081692          0.064670          0.555126         -0.394270         -0.709536
                 -0.051819          0.165439         -0.087536          0.011863         -0.021563         -0.027218
   2   3          0.035183         -0.036427         -0.022868         -0.097671          0.082675         -0.013958
                 -0.139453          0.126797          0.067436         -0.157438          0.095299          0.707945
                  0.039922          0.011510         -0.096361          0.814089         -0.751469         -0.777730
                  0.192344          0.051819         -0.175575         -0.011863         -0.027218         -0.021563
   3   1          0.142448         -0.003089          0.003089          0.072692          0.001283         -0.139453
                 -0.012695         -0.077699         -0.089752         -0.777730         -0.813905         -0.709536
                 -0.044451          0.063591          0.035530         -0.044451         -0.035530         -0.063591
                 -0.777730          0.709536          0.813905          0.082360         -0.162957         -0.030991
   3   2          0.001671         -0.097122         -0.137922          0.003706         -0.059062          0.126797
                 -0.077699         -0.046583         -0.155804         -0.814089         -0.438820         -0.555126
                  0.012800         -0.044451         -0.077045          0.077045          0.952521          0.035530
                  0.751469         -0.394270         -0.499361         -0.058306          0.076042         -0.031008
   3   3         -0.001671         -0.137922         -0.097122         -0.075160          0.017859          0.067436
                 -0.089752         -0.155804         -0.112394         -0.751469         -0.499361         -0.394270
                 -0.077045          0.035530          0.952521         -0.012800         -0.077045         -0.044451
                  0.814089         -0.555126         -0.438820          0.096689          0.119872         -0.136121
   4   1         -0.931560          0.899382          0.899004          0.012620          0.067328         -0.157438
                 -0.777730         -0.814089         -0.751469          0.260259         -0.324828         -0.327339
                  0.015085          0.032039          0.032097         -0.011104          0.025498          0.089405
                 -0.078538         -0.087324         -0.108063         -0.066360         -0.113178          0.060480
   4   2          0.975553         -0.873669         -0.975553          0.103982          0.012620          0.095299
                 -0.813905         -0.438820         -0.499361         -0.324828          0.302541          0.324828
                  0.021593         -0.008534         -0.021593          0.057711         -0.018420         -0.091848
                  0.108063         -0.014988         -0.020395          0.077254          1.098738         -0.077254
   4   3          0.899004         -0.899382         -0.931560          0.095299         -0.157438          0.707945
                 -0.709536         -0.555126         -0.394270         -0.327339          0.324828          0.260259
                  0.032097         -0.032039          0.015085          0.046232         -0.048496         -0.047132
                  0.087324          0.011599         -0.014988          0.060480          0.113178         -0.066360
   5   1         -0.074875         -0.004695          0.118056          0.063207          0.081558          0.039922
                 -0.044451          0.012800         -0.077045          0.015085          0.021593          0.032097
                 -0.082144         -0.032573          0.157751         -0.095055          0.001596         -0.011332
                  0.048529         -0.048375          0.042653         -0.244886          0.423728          0.164551
   5   2          0.003201          0.115494         -0.003201          0.151532          0.081692          0.011510
                  0.063591         -0.044451          0.035530          0.032039         -0.008534         -0.032039
                 -0.032573         -0.003934          0.032573          0.011332          0.001619          0.022081
                 -0.135405          0.088191         -0.070730          0.405802         -0.597865         -0.405802
   5   3          0.118056          0.004695         -0.074875         -0.127341          0.064670         -0.096361
                  0.035530         -0.077045          0.952521          0.032097         -0.021593          0.015085
                  0.157751          0.032573         -0.082144         -0.001596          0.002391          0.001619
                 -0.128439         -0.057812         -0.104446          0.164551         -0.423728         -0.244886
   6   1         -0.097122          0.137922         -0.001671         -0.438820          0.555126          0.814089
                 -0.044451          0.077045         -0.012800         -0.011104          0.057711          0.046232
                 -0.095055          0.011332         -0.001596         -0.112394          0.155804         -0.089752
                  0.067436         -0.017859         -0.075160          0.076042          0.031008          0.058306
   6   2          0.137922         -0.097122         -0.001671          0.499361         -0.394270         -0.751469
                 -0.035530          0.952521         -0.077045          0.025498         -0.018420         -0.048496
                  0.001596          0.001619          0.002391          0.155804         -0.046583          0.077699
                 -0.126797         -0.059062         -0.003706         -0.119872         -0.136121          0.096689
   6   3          0.003089          0.003089          0.142448          0.813905         -0.709536         -0.777730
                 -0.063591          0.035530         -0.044451          0.089405         -0.091848         -0.047132
                 -0.011332          0.022081          0.001619         -0.089752          0.077699         -0.012695
                 -0.139453         -0.001283          0.072692          0.162957         -0.030991          0.082360
   7   1         -0.022868          0.036427          0.035183         -0.175575         -0.051819          0.192344
                 -0.777730          0.751469          0.814089         -0.078538          0.108063          0.087324
                  0.048529         -0.135405         -0.128439          0.067436         -0.126797         -0.139453
                 -0.013958         -0.082675         -0.097671         -0.203124          0.250599         -0.067961
   7   2          0.014241          0.027818          0.052353          0.087536          0.165439          0.051819
                  0.709536         -0.394270         -0.555126         -0.087324         -0.014988          0.011599
                 -0.048375          0.088191         -0.057812         -0.017859         -0.059062         -0.001283
                 -0.082675         -0.062154          0.088945          0.250599         -0.203124         -0.067961
   7   3          0.006576          0.050237          0.020943          0.277316         -0.087536         -0.175575
                  0.813905         -0.499361         -0.438820         -0.108063         -0.020395         -0.014988
                  0.042653         -0.070730         -0.104446         -0.075160         -0.003706          0.072692
                 -0.097671          0.088945          0.073183          0.045497          0.045497          0.173107
   8   1          0.035680          0.013297         -0.053078          0.018384          0.011863         -0.011863
                  0.082360         -0.058306          0.096689         -0.066360          0.077254          0.060480
                 -0.244886          0.405802          0.164551          0.076042         -0.119872          0.162957
                 -0.203124          0.250599          0.045497         -0.020252          0.156116          0.128983
   8   2          0.012026          0.004887         -0.012026         -0.023331         -0.021563         -0.027218
                 -0.162957          0.076042          0.119872         -0.113178          1.098738          0.113178
                  0.423728         -0.597865         -0.423728          0.031008         -0.136121         -0.030991
                  0.250599         -0.203124          0.045497          0.156116         -0.050573         -0.156116
   8   3         -0.053078         -0.013297          0.035680          0.023331         -0.027218         -0.021563
                 -0.030991         -0.031008         -0.136121          0.060480         -0.077254         -0.066360
                  0.164551         -0.405802         -0.244886          0.058306          0.096689          0.082360
                 -0.067961         -0.067961          0.173107          0.128983         -0.156116         -0.020252

 Supercell   3 at (0,1,0)        5.558 A                             
   1   1         -0.081048          0.005169         -0.005169         -0.873669          0.899382         -0.899382
                  0.115494         -0.004695          0.004695          0.027818         -0.050237         -0.036427
                 -0.097122         -0.003089         -0.137922         -0.097122          0.137922          0.003089
                  0.027818          0.036427          0.050237          0.004887          0.013297         -0.013297
   1   2          0.005169         -0.049694          0.004357          0.975553         -0.931560          0.899004
                  0.003201         -0.074875          0.118056         -0.052353          0.020943          0.035183
                  0.001671          0.142448         -0.001671          0.137922         -0.097122          0.003089
                  0.014241         -0.022868          0.006576          0.012026          0.035680         -0.053078
   1   3         -0.005169          0.004357         -0.049694         -0.975553          0.899004         -0.931560
                 -0.003201          0.118056         -0.074875         -0.014241          0.006576         -0.022868
                 -0.137922          0.003089         -0.097122         -0.001671         -0.001671          0.142448
                  0.052353          0.035183          0.020943         -0.012026         -0.053078          0.035680
   2   1         -0.873669          0.975553         -0.975553          0.302541         -0.324828          0.324828
                 -0.008534          0.021593         -0.021593          0.012620          0.103982          0.095299
                 -0.438820         -0.813905         -0.499361         -0.018420          0.057711         -0.091848
                 -0.014988          0.108063         -0.020395          1.098738          0.077254         -0.077254
   2   2          0.899382         -0.931560          0.899004         -0.324828          0.260259         -0.327339
                  0.032039          0.015085          0.032097          0.067328          0.012620         -0.157438
                 -0.814089         -0.777730         -0.751469          0.025498         -0.011104          0.089405
                 -0.087324         -0.078538         -0.108063         -0.113178         -0.066360          0.060480
   2   3         -0.899382          0.899004         -0.931560          0.324828         -0.327339          0.260259
                 -0.032039          0.032097          0.015085         -0.157438          0.095299          0.707945
                 -0.555126         -0.709536         -0.394270         -0.048496          0.046232         -0.047132
                  0.011599          0.087324         -0.014988          0.113178          0.060480         -0.066360
   3   1          0.115494          0.003201         -0.003201         -0.008534          0.032039         -0.032039
                 -0.003934         -0.032573          0.032573          0.081692          0.151532          0.011510
                 -0.044451          0.063591          0.035530          0.001619          0.011332          0.022081
                  0.088191         -0.135405         -0.070730         -0.597865          0.405802         -0.405802
   3   2         -0.004695         -0.074875          0.118056          0.021593          0.015085          0.032097
                 -0.032573         -0.082144          0.157751          0.081558          0.063207          0.039922
                  0.012800         -0.044451         -0.077045          0.001596         -0.095055         -0.011332
                 -0.048375          0.048529          0.042653          0.423728         -0.244886          0.164551
   3   3          0.004695          0.118056         -0.074875         -0.021593          0.032097          0.015085
                  0.032573          0.157751         -0.082144          0.064670         -0.127341         -0.096361
                 -0.077045          0.035530          0.952521          0.002391         -0.001596          0.001619
                 -0.057812         -0.128439         -0.104446         -0.423728          0.164551         -0.244886
   4   1          0.027818         -0.052353         -0.014241          0.012620          0.067328         -0.157438
                  0.081692          0.081558          0.064670         -0.062154         -0.088945          0.082675
                 -0.059062          0.001283          0.017859         -0.394270          0.555126         -0.709536
                  0.165439         -0.051819         -0.087536         -0.021563          0.011863         -0.027218
   4   2         -0.050237          0.020943          0.006576          0.103982          0.012620          0.095299
                  0.151532          0.063207         -0.127341         -0.088945          0.073183         -0.097671
                  0.003706          0.072692         -0.075160          0.499361         -0.438820          0.813905
                  0.087536         -0.175575          0.277316         -0.023331          0.018384          0.023331
   4   3         -0.036427          0.035183         -0.022868          0.095299         -0.157438          0.707945
                  0.011510          0.039922         -0.096361          0.082675         -0.097671         -0.013958
                  0.126797         -0.139453          0.067436         -0.751469          0.814089         -0.777730
                  0.051819          0.192344         -0.175575         -0.027218         -0.011863         -0.021563
   5   1         -0.097122          0.001671         -0.137922         -0.438820         -0.814089         -0.555126
                 -0.044451          0.012800         -0.077045         -0.059062          0.003706          0.126797
                 -0.046583         -0.077699         -0.155804          0.952521          0.077045          0.035530
                 -0.394270          0.751469         -0.499361          0.076042         -0.058306         -0.031008
   5   2         -0.003089          0.142448          0.003089         -0.813905         -0.777730         -0.709536
                  0.063591         -0.044451          0.035530          0.001283          0.072692         -0.139453
                 -0.077699         -0.012695         -0.089752         -0.035530         -0.044451         -0.063591
                  0.709536         -0.777730          0.813905         -0.162957          0.082360         -0.030991
   5   3         -0.137922         -0.001671         -0.097122         -0.499361         -0.751469         -0.394270
                  0.035530         -0.077045          0.952521          0.017859         -0.075160          0.067436
                 -0.155804         -0.089752         -0.112394         -0.077045         -0.012800         -0.044451
                 -0.555126          0.814089         -0.438820          0.119872          0.096689         -0.136121
   6   1         -0.097122          0.137922         -0.001671         -0.018420          0.025498         -0.048496
                  0.001619          0.001596          0.002391         -0.394270          0.499361         -0.751469
                  0.952521         -0.035530         -0.077045         -0.046583          0.155804          0.077699
                 -0.059062         -0.126797         -0.003706         -0.136121         -0.119872          0.096689
   6   2          0.137922         -0.097122         -0.001671          0.057711         -0.011104          0.046232
                  0.011332         -0.095055         -0.001596          0.555126         -0.438820          0.814089
                  0.077045         -0.044451         -0.012800          0.155804         -0.112394         -0.089752
                 -0.017859          0.067436         -0.075160          0.031008          0.076042          0.058306
   6   3          0.003089          0.003089          0.142448         -0.091848          0.089405         -0.047132
                  0.022081         -0.011332          0.001619         -0.709536          0.813905         -0.777730
                  0.035530         -0.063591         -0.044451          0.077699         -0.089752         -0.012695
                 -0.001283         -0.139453          0.072692         -0.030991          0.162957          0.082360
   7   1          0.027818          0.014241          0.052353         -0.014988         -0.087324          0.011599
                  0.088191         -0.048375         -0.057812          0.165439          0.087536          0.051819
                 -0.394270          0.709536         -0.555126         -0.059062         -0.017859         -0.001283
                 -0.062154         -0.082675          0.088945         -0.203124          0.250599         -0.067961
   7   2          0.036427         -0.022868          0.035183          0.108063         -0.078538          0.087324
                 -0.135405          0.048529         -0.128439         -0.051819         -0.175575          0.192344
                  0.751469         -0.777730          0.814089         -0.126797          0.067436         -0.139453
                 -0.082675         -0.013958         -0.097671          0.250599         -0.203124         -0.067961
   7   3          0.050237          0.006576          0.020943         -0.020395         -0.108063         -0.014988
                 -0.070730          0.042653         -0.104446         -0.087536          0.277316         -0.175575
                 -0.499361          0.813905         -0.438820         -0.003706         -0.075160          0.072692
                  0.088945         -0.097671          0.073183          0.045497          0.045497          0.173107
   8   1          0.004887          0.012026         -0.012026          1.098738         -0.113178          0.113178
                 -0.597865          0.423728         -0.423728         -0.021563         -0.023331         -0.027218
                  0.076042         -0.162957          0.119872         -0.136121          0.031008         -0.030991
                 -0.203124          0.250599          0.045497         -0.050573          0.156116         -0.156116
   8   2          0.013297          0.035680         -0.053078          0.077254         -0.066360          0.060480
                  0.405802         -0.244886          0.164551          0.011863          0.018384         -0.011863
                 -0.058306          0.082360          0.096689         -0.119872          0.076042          0.162957
                  0.250599         -0.203124          0.045497          0.156116         -0.020252          0.128983
   8   3         -0.013297         -0.053078          0.035680         -0.077254          0.060480         -0.066360
                 -0.405802          0.164551         -0.244886         -0.027218          0.023331         -0.021563
                 -0.031008         -0.030991         -0.136121          0.096689          0.058306          0.082360
                 -0.067961         -0.067961          0.173107         -0.156116          0.128983         -0.020252

 Supercell   4 at (1,1,0)        6.418 A                             
   1   1         -0.039602         -0.004234          0.005669          0.020943         -0.052353          0.035183
                  0.016810         -0.005854          0.005854          0.027818         -0.050237         -0.036427
                 -0.046548          0.004787          0.002530         -0.088361         -0.034456          0.018431
                  0.021327          0.054550          0.005594          0.035680          0.053078         -0.012026
   1   2         -0.004234         -0.039602          0.005669         -0.050237          0.027818         -0.036427
                  0.004787         -0.046548          0.002530         -0.052353          0.020943          0.035183
                 -0.005854          0.016810          0.005854         -0.034456         -0.088361          0.018431
                  0.054550          0.021327          0.005594          0.053078          0.035680         -0.012026
   1   3          0.005669          0.005669         -0.002232          0.006576         -0.014241         -0.022868
                 -0.004787          0.002530         -0.046548         -0.014241          0.006576         -0.022868
                  0.002530         -0.004787         -0.046548         -0.010932         -0.010932          0.318254
                  0.026203          0.026203         -0.020032         -0.013297         -0.013297          0.004887
   2   1          0.020943         -0.050237          0.006576          0.029467         -0.044977         -0.012831
                  0.072692          0.075160         -0.003706         -0.014988          0.020395         -0.108063
                 -0.104446          0.070730          0.042653         -0.018420          0.057711         -0.091848
                 -0.062289          0.023994         -0.013301          0.173107         -0.045497          0.045497
   2   2         -0.052353          0.027818         -0.014241         -0.044977         -0.043592          0.038358
                  0.139453          0.067436          0.126797         -0.011599         -0.014988          0.087324
                  0.057812          0.088191          0.048375          0.025498         -0.011104          0.089405
                  0.001353         -0.002945         -0.023994          0.067961         -0.203124         -0.250599
   2   3          0.035183         -0.036427         -0.022868         -0.012831          0.038358         -0.437214
                 -0.001283          0.017859         -0.059062          0.087324         -0.108063         -0.078538
                 -0.128439          0.135405          0.048529         -0.048496          0.046232         -0.047132
                  0.045069         -0.001353         -0.062289         -0.067961         -0.250599         -0.203124
   3   1          0.016810          0.004787         -0.004787          0.072692          0.139453         -0.001283
                 -0.064174         -0.028606          0.001299          0.088191          0.070730          0.135405
                 -0.119832          0.202313          0.014878         -0.119832         -0.014878         -0.202313
                  0.088191         -0.135405         -0.070730          0.082360         -0.162957         -0.030991
   3   2         -0.005854         -0.046548          0.002530          0.075160          0.067436          0.017859
                 -0.028606          0.062326          0.015451          0.057812         -0.104446         -0.128439
                  0.184505         -0.119832         -0.034397          0.034397          0.127157          0.014878
                 -0.048375          0.048529          0.042653         -0.058306          0.076042         -0.031008
   3   3          0.005854          0.002530         -0.046548         -0.003706          0.126797         -0.059062
                  0.001299          0.015451         -0.330483          0.048375          0.042653          0.048529
                 -0.034397          0.014878          0.127157         -0.184505         -0.034397         -0.119832
                 -0.057812         -0.128439         -0.104446          0.096689          0.119872         -0.136121
   4   1          0.027818         -0.052353         -0.014241         -0.014988         -0.011599          0.087324
                  0.088191          0.057812          0.048375         -0.043592         -0.044977          0.038358
                  0.067436          0.139453          0.126797         -0.011104          0.025498          0.089405
                 -0.002945          0.001353         -0.023994         -0.203124          0.067961         -0.250599
   4   2         -0.050237          0.020943          0.006576          0.020395         -0.014988         -0.108063
                  0.070730         -0.104446          0.042653         -0.044977          0.029467         -0.012831
                  0.075160          0.072692         -0.003706          0.057711         -0.018420         -0.091848
                  0.023994         -0.062289         -0.013301         -0.045497          0.173107          0.045497
   4   3         -0.036427          0.035183         -0.022868         -0.108063          0.087324         -0.078538
                  0.135405         -0.128439          0.048529          0.038358         -0.012831         -0.437214
                  0.017859         -0.001283         -0.059062          0.046232         -0.048496         -0.047132
                 -0.001353          0.045069         -0.062289         -0.250599         -0.067961         -0.203124
   5   1         -0.046548         -0.005854          0.002530         -0.104446          0.057812         -0.128439
                 -0.119832          0.184505         -0.034397          0.067436          0.075160          0.017859
                  0.062326         -0.028606          0.015451          0.127157          0.034397          0.014878
                  0.048529         -0.048375          0.042653          0.076042         -0.058306         -0.031008
   5   2          0.004787          0.016810         -0.004787          0.070730          0.088191          0.135405
                  0.202313         -0.119832          0.014878          0.139453          0.072692         -0.001283
                 -0.028606         -0.064174          0.001299         -0.014878         -0.119832         -0.202313
                 -0.135405          0.088191         -0.070730         -0.162957          0.082360         -0.030991
   5   3          0.002530          0.005854         -0.046548          0.042653          0.048375          0.048529
                  0.014878         -0.034397          0.127157          0.126797         -0.003706         -0.059062
                  0.015451          0.001299         -0.330483         -0.034397         -0.184505         -0.119832
                 -0.128439         -0.057812         -0.104446          0.119872          0.096689         -0.136121
   6   1         -0.088361         -0.034456         -0.010932         -0.018420          0.025498         -0.048496
                 -0.119832          0.034397         -0.184505         -0.011104          0.057711          0.046232
                  0.127157         -0.014878         -0.034397          0.087109          0.008931         -0.008802
                  0.015085         -0.032097         -0.021593         -0.244886         -0.164551         -0.423728
   6   2         -0.034456         -0.088361         -0.010932          0.057711         -0.011104          0.046232
                 -0.014878          0.127157         -0.034397          0.025498         -0.018420         -0.048496
                  0.034397         -0.119832         -0.184505          0.008931          0.087109         -0.008802
                 -0.032097          0.015085         -0.021593         -0.164551         -0.244886         -0.423728
   6   3          0.018431          0.018431          0.318254         -0.091848          0.089405         -0.047132
                 -0.202313          0.014878         -0.119832          0.089405         -0.091848         -0.047132
                  0.014878         -0.202313         -0.119832         -0.008802         -0.008802          0.009757
                 -0.032039         -0.032039         -0.008534         -0.405802         -0.405802         -0.597865
   7   1          0.021327          0.054550          0.026203         -0.062289          0.001353          0.045069
                  0.088191         -0.048375         -0.057812         -0.002945          0.023994         -0.001353
                  0.048529         -0.135405         -0.128439          0.015085         -0.032097         -0.032039
                  0.015863         -0.005109         -0.021647         -0.066360         -0.060480          0.113178
   7   2          0.054550          0.021327          0.026203          0.023994         -0.002945         -0.001353
                 -0.135405          0.048529         -0.128439          0.001353         -0.062289          0.045069
                 -0.048375          0.088191         -0.057812         -0.032097          0.015085         -0.032039
                 -0.005109          0.015863         -0.021647         -0.060480         -0.066360          0.113178
   7   3          0.005594          0.005594         -0.020032         -0.013301         -0.023994         -0.062289
                 -0.070730          0.042653         -0.104446         -0.023994         -0.013301         -0.062289
                  0.042653         -0.070730         -0.104446         -0.021593         -0.021593         -0.008534
                 -0.021647         -0.021647         -0.308280         -0.077254         -0.077254          1.098738
   8   1          0.035680          0.053078         -0.013297          0.173107          0.067961         -0.067961
                  0.082360         -0.058306          0.096689         -0.203124         -0.045497         -0.250599
                  0.076042         -0.162957          0.119872         -0.244886         -0.164551         -0.405802
                 -0.066360         -0.060480         -0.077254          0.142899         -0.002894         -0.006577
   8   2          0.053078          0.035680         -0.013297         -0.045497         -0.203124         -0.250599
                 -0.162957          0.076042          0.119872          0.067961          0.173107         -0.067961
                 -0.058306          0.082360          0.096689         -0.164551         -0.244886         -0.405802
                 -0.060480         -0.066360         -0.077254         -0.002894          0.142899         -0.006577
   8   3         -0.012026         -0.012026          0.004887          0.045497         -0.250599         -0.203124
                 -0.030991         -0.031008         -0.136121         -0.250599          0.045497         -0.203124
                 -0.031008         -0.030991         -0.136121         -0.423728         -0.423728         -0.597865
                  0.113178          0.113178          1.098738         -0.006577         -0.006577         -0.499236

 Supercell   5 at (0,0,1)        5.558 A                             
   1   1         -0.009965          0.019474         -0.019474         -0.020032         -0.026203          0.026203
                  0.115494         -0.004695          0.004695          0.021327         -0.005594         -0.054550
                 -0.074875          0.003201          0.118056         -0.074875         -0.118056         -0.003201
                  0.021327          0.054550          0.005594         -0.727061         -0.697825          0.697825
   1   2          0.019474         -0.009965         -0.019474         -0.005594          0.021327         -0.054550
                  0.003201         -0.074875          0.118056         -0.026203         -0.020032          0.026203
                 -0.004695          0.115494          0.004695         -0.118056         -0.074875         -0.003201
                  0.054550          0.021327          0.005594         -0.697825         -0.727061          0.697825
   1   3         -0.019474         -0.019474         -0.009965          0.005594         -0.054550          0.021327
                 -0.003201          0.118056         -0.074875         -0.054550          0.005594          0.021327
                  0.118056         -0.003201         -0.074875          0.004695          0.004695          0.115494
                  0.026203          0.026203         -0.020032          0.697825          0.697825         -0.727061
   2   1         -0.020032         -0.005594          0.005594         -0.024489          0.027518         -0.027518
                 -0.767088         -0.748412          0.748412         -0.062289          0.013301         -0.023994
                 -0.104446          0.070730          0.042653          0.063207          0.127341         -0.151532
                 -0.175575          0.087536          0.277316          1.098738          0.077254         -0.077254
   2   2         -0.026203          0.021327         -0.054550          0.027518         -0.104844         -0.099342
                 -0.673985         -0.237721          0.438029         -0.045069         -0.062289         -0.001353
                  0.057812          0.088191          0.048375         -0.039922         -0.096361          0.011510
                 -0.051819          0.165439         -0.087536         -0.113178         -0.066360          0.060480
   2   3          0.026203         -0.054550          0.021327         -0.027518         -0.099342         -0.104844
                  0.673985          0.438029         -0.237721         -0.001353         -0.023994         -0.002945
                 -0.128439          0.135405          0.048529         -0.081558          0.064670          0.081692
                  0.192344          0.051819         -0.175575          0.113178          0.060480         -0.066360
   3   1          0.115494          0.003201         -0.003201         -0.767088         -0.673985          0.673985
                 -0.019079          0.055702         -0.055702          0.088191          0.070730          0.135405
                  0.001619         -0.022081         -0.011332         -0.044451         -0.035530         -0.063591
                  0.081692         -0.011510         -0.151532         -0.061698         -0.062363          0.062363
   3   2         -0.004695         -0.074875          0.118056         -0.748412         -0.237721          0.438029
                  0.055702         -0.117564          0.236818          0.057812         -0.104446         -0.128439
                 -0.002391          0.001619         -0.001596          0.077045          0.952521          0.035530
                 -0.064670         -0.096361         -0.127341         -0.035851         -0.034854          0.013251
   3   3          0.004695          0.118056         -0.074875          0.748412          0.438029         -0.237721
                 -0.055702          0.236818         -0.117564          0.048375          0.042653          0.048529
                 -0.001596         -0.011332         -0.095055         -0.012800         -0.077045         -0.044451
                 -0.081558          0.039922          0.063207          0.035851          0.013251         -0.034854
   4   1          0.021327         -0.026203         -0.054550         -0.062289         -0.045069         -0.001353
                  0.088191          0.057812          0.048375         -0.104844          0.027518         -0.099342
                 -0.237721         -0.673985          0.438029         -0.096361         -0.039922          0.011510
                  0.165439         -0.051819         -0.087536         -0.066360         -0.113178          0.060480
   4   2         -0.005594         -0.020032          0.005594          0.013301         -0.062289         -0.023994
                  0.070730         -0.104446          0.042653          0.027518         -0.024489         -0.027518
                 -0.748412         -0.767088          0.748412          0.127341          0.063207         -0.151532
                  0.087536         -0.175575          0.277316          0.077254          1.098738         -0.077254
   4   3         -0.054550          0.026203          0.021327         -0.023994         -0.001353         -0.002945
                  0.135405         -0.128439          0.048529         -0.099342         -0.027518         -0.104844
                  0.438029          0.673985         -0.237721          0.064670         -0.081558          0.081692
                  0.051819          0.192344         -0.175575          0.060480          0.113178         -0.066360
   5   1         -0.074875         -0.004695          0.118056         -0.104446          0.057812         -0.128439
                  0.001619         -0.002391         -0.001596         -0.237721         -0.748412          0.438029
                 -0.117564          0.055702          0.236818          0.952521          0.077045          0.035530
                 -0.096361         -0.064670         -0.127341         -0.034854         -0.035851          0.013251
   5   2          0.003201          0.115494         -0.003201          0.070730          0.088191          0.135405
                 -0.022081          0.001619         -0.011332         -0.673985         -0.767088          0.673985
                  0.055702         -0.019079         -0.055702         -0.035530         -0.044451         -0.063591
                 -0.011510          0.081692         -0.151532         -0.062363         -0.061698          0.062363
   5   3          0.118056          0.004695         -0.074875          0.042653          0.048375          0.048529
                 -0.011332         -0.001596         -0.095055          0.438029          0.748412         -0.237721
                  0.236818         -0.055702         -0.117564         -0.077045         -0.012800         -0.044451
                  0.039922         -0.081558          0.063207          0.013251          0.035851         -0.034854
   6   1         -0.074875         -0.118056          0.004695          0.063207         -0.039922         -0.081558
                 -0.044451          0.077045         -0.012800         -0.096361          0.127341          0.064670
                  0.952521         -0.035530         -0.077045         -0.117564         -0.236818         -0.055702
                 -0.237721         -0.438029          0.748412         -0.244886         -0.164551         -0.423728
   6   2         -0.118056         -0.074875          0.004695          0.127341         -0.096361          0.064670
                 -0.035530          0.952521         -0.077045         -0.039922          0.063207         -0.081558
                  0.077045         -0.044451         -0.012800         -0.236818         -0.117564         -0.055702
                 -0.438029         -0.237721          0.748412         -0.164551         -0.244886         -0.423728
   6   3         -0.003201         -0.003201          0.115494         -0.151532          0.011510          0.081692
                 -0.063591          0.035530         -0.044451          0.011510         -0.151532          0.081692
[...]
 +    24       8.343012   a                                                   + 
 + .......................................................................... +
 +        Character table from group theory analysis of eigenvectors          +
 +                           Point Group =  20, D3d                           +
 + .......................................................................... +
 +  Rep  Mul |    E   m                                                       +
 +           | --------                                                       +
 + a      14 |    1   1                                                       +
 + b      10 |    1  -1                                                       +
 + -------------------------------------------------------------------------- +
 +  q-pt=  779 ( -0.500000 -0.500000 -0.350000)     0.0007500000              +
 + -------------------------------------------------------------------------- +
 +  Acoustic sum rule correction <   0.129542 THz applied                     +
 +     N      Frequency irrep.                                                + 
 +                 (THz)                                                      + 
 +                                                                            +
 +     1      -3.311928   a                                                   + 
 +     2      -1.565531   a                                                   + 
 +     3      -0.333831   a                                                   + 
 +     4       2.204164   b                                                   + 
 +     5       2.406672   a                                                   + 
 +     6       2.719818   b                                                   + 
 +     7       3.397328   a                                                   + 
 +     8       3.776951   b                                                   + 
 +     9       3.960110   a                                                   + 
 +    10       4.307944   b                                                   + 
 +    11       4.351594   a                                                   + 
 +    12       4.654399   a                                                   + 
 +    13       4.927442   b                                                   + 
 +    14       4.948700   b                                                   + 
 +    15       5.065946   a                                                   + 
 +    16       5.169101   b                                                   + 
 +    17       5.233357   a                                                   + 
 +    18       5.493018   b                                                   + 
 +    19       5.584413   a                                                   + 
 +    20       5.944663   a                                                   + 
 +    21       6.109923   b                                                   + 
 +    22       7.628232   a                                                   + 
 +    23       8.296195   b                                                   + 
 +    24       8.612643   a                                                   + 
 + .......................................................................... +
 +        Character table from group theory analysis of eigenvectors          +
 +                           Point Group =  20, D3d                           +
 + .......................................................................... +
 +  Rep  Mul |    E   m                                                       +
 +           | --------                                                       +
 + a      14 |    1   1                                                       +
 + b      10 |    1  -1                                                       +
 + -------------------------------------------------------------------------- +
 +  q-pt=  780 ( -0.500000 -0.500000  0.250000)     0.0007500000              +
 + -------------------------------------------------------------------------- +
 +  Acoustic sum rule correction <   0.071363 THz applied                     +
 +     N      Frequency irrep.                                                + 
 +                 (THz)                                                      + 
 +                                                                            +
 +     1      -3.341274   a                                                   + 
 +     2      -2.589234   a                                                   + 
 +     3      -1.344274   a                                                   + 
 +     4       1.762297   b                                                   + 
 +     5       2.365091   a                                                   + 
 +     6       2.858045   b                                                   + 
 +     7       3.144948   b                                                   + 
 +     8       3.232258   a                                                   + 
 +     9       3.598938   a                                                   + 
 +    10       4.096576   a                                                   + 
 +    11       4.201561   b                                                   + 
 +    12       4.625108   a                                                   + 
 +    13       4.927413   b                                                   + 
 +    14       4.941116   a                                                   + 
 +    15       5.031605   b                                                   + 
 +    16       5.061783   b                                                   + 
 +    17       5.538410   a                                                   + 
 +    18       5.681876   b                                                   + 
 +    19       6.074773   a                                                   + 
 +    20       6.312822   a                                                   + 
 +    21       6.469830   b                                                   + 
 +    22       7.992351   a                                                   + 
 +    23       8.285711   b                                                   + 
 +    24       8.993184   a                                                   + 
 + .......................................................................... +
 +        Character table from group theory analysis of eigenvectors          +
 +                           Point Group =  20, D3d                           +
 + .......................................................................... +
 +  Rep  Mul |    E   m                                                       +
 +           | --------                                                       +
 + a      14 |    1   1                                                       +
 + b      10 |    1  -1                                                       +
 + -------------------------------------------------------------------------- +
 +  q-pt=  781 ( -0.500000 -0.500000 -0.500000)     0.0001250000              +
 + -------------------------------------------------------------------------- +
 +  Acoustic sum rule correction <   0.044601 THz applied                     +
 +     N      Frequency irrep.                                                + 
 +                 (THz)                                                      + 
 +                                                                            +
 +     1      -3.228150   a                                                   + 
 +     2       1.298112   b                                                   + 
 +     3       2.046867   c                                                   + 
 +     4       2.046867   c                                                   + 
 +     5       2.165669   a                                                   + 
 +     6       2.689283   d                                                   + 
 +     7       2.689283   d                                                   + 
 +     8       4.412232   d                                                   + 
 +     9       4.412232   d                                                   + 
 +    10       4.731728   c                                                   + 
 +    11       4.731728   c                                                   + 
 +    12       4.856394   b                                                   + 
 +    13       4.911302   c                                                   + 
 +    14       4.911302   c                                                   + 
 +    15       4.958887   e                                                   + 
 +    16       5.005349   a                                                   + 
 +    17       5.166503   f                                                   + 
 +    18       5.364038   c                                                   + 
 +    19       5.364038   c                                                   + 
 +    20       5.518292   d                                                   + 
 +    21       5.518292   d                                                   + 
 +    22       7.313318   b                                                   + 
 +    23       8.303894   d                                                   + 
 +    24       8.303894   d                                                   + 
 + .......................................................................... +
 +        Character table from group theory analysis of eigenvectors          +
 +                           Point Group =  20, D3d                           +
 + .......................................................................... +
 +  Rep  Mul |    E   I   3  -3   2   m                                       +
 +           | ------------------------                                       +
 + a       3 |    1   1   1   1   1   1                                       +
 + b       3 |    1  -1   1  -1  -1   1                                       +
 + c       4 |    2   2  -1  -1   0   0                                       +
 + d       4 |    2  -2  -1   1   0   0                                       +
 + e       1 |    1   1   1   1  -1  -1                                       +
 + f       1 |    1  -1   1  -1   1  -1                                       +
 ==============================================================================

 ******************** Symmetrised Forces ********************
 *                                                          *
 *               Cartesian components (eV/A)                *
 * -------------------------------------------------------- *
 *                         x            y            z      *
 *                                                          *
 * Al              1      0.00000      0.00000      0.00000 *
 * Ti              1      0.00000      0.00000      0.00000 *
 * Ti              2      0.00000      0.00000      0.00000 *
 * Ti              3      0.00000      0.00000      0.00000 *
 * Ti              4      0.00000      0.00000      0.00000 *
 * Ti              5      0.00000      0.00000      0.00000 *
 * Ti              6      0.00000      0.00000      0.00000 *
 * V               1      0.00000      0.00000      0.00000 *
 *                                                          *
 ************************************************************

 *********** Symmetrised Stress Tensor ***********
 *                                               *
 *          Cartesian components (GPa)           *
 * --------------------------------------------- *
 *             x             y             z     *
 *                                               *
 *  x      0.059826     -0.131534      0.131534  *
 *  y     -0.131534      0.059826      0.131534  *
 *  z      0.131534      0.131534      0.059826  *
 *                                               *
 *  Pressure:   -0.0598                          *
 *                                               *
 *************************************************

 Pseudo atomic calculation performed for Al 3s2 3p1

 Converged in 22 iterations to a total energy of -107.1308 eV

 Pseudo atomic calculation performed for Ti 3s2 3p6 3d2 4s2

 Converged in 51 iterations to a total energy of -1587.0236 eV

 Pseudo atomic calculation performed for V 3s2 3p6 3d3 4s2

 Converged in 52 iterations to a total energy of -2065.7874 eV
Charge spilling parameter for spin component 1 = 0.09%

            Orbital Populations       
     Ion    Atom   Orbital             Charge
  -------------------------------------------
     Al     1      S                    0.923
     Al     1      Px                   0.712
     Al     1      Py                   0.703
     Al     1      Pz                   0.709
     Ti     1      S                    2.003
     Ti     1      Px                   2.006
     Ti     1      Py                   2.006
     Ti     1      Pz                   2.006
     Ti     1      S                    0.284
     Ti     1      Dzz                  0.630
     Ti     1      Dzy                  0.498
     Ti     1      Dzx                  0.480
     Ti     1      Dxx-yy               0.620
     Ti     1      Dxy                  0.490
     Ti     1      Px                   0.318
     Ti     1      Py                   0.348
     Ti     1      Pz                   0.327
     Ti     2      S                    2.004
     Ti     2      Px                   2.006
     Ti     2      Py                   2.006
     Ti     2      Pz                   2.006
     Ti     2      S                    0.286
     Ti     2      Dzz                  0.522
     Ti     2      Dzy                  0.453
     Ti     2      Dzx                  0.650
     Ti     2      Dxx-yy               0.461
     Ti     2      Dxy                  0.661
     Ti     2      Px                   0.290
     Ti     2      Py                   0.323
     Ti     2      Pz                   0.308
     Ti     3      S                    2.003
     Ti     3      Px                   2.006
     Ti     3      Py                   2.005
     Ti     3      Pz                   2.006
     Ti     3      S                    0.284
     Ti     3      Dzz                  0.635
     Ti     3      Dzy                  0.489
     Ti     3      Dzx                  0.493
     Ti     3      Dxx-yy               0.639
     Ti     3      Dxy                  0.497
     Ti     3      Px                   0.317
     Ti     3      Py                   0.345
     Ti     3      Pz                   0.328
     Ti     4      S                    2.004
     Ti     4      Px                   2.006
     Ti     4      Py                   2.006
     Ti     4      Pz                   2.006
     Ti     4      S                    0.269
     Ti     4      Dzz                  0.518
     Ti     4      Dzy                  0.615
     Ti     4      Dzx                  0.477
     Ti     4      Dxx-yy               0.472
     Ti     4      Dxy                  0.617
     Ti     4      Px                   0.302
     Ti     4      Py                   0.304
     Ti     4      Pz                   0.308
     Ti     5      S                    2.004
     Ti     5      Px                   2.006
     Ti     5      Py                   2.006
     Ti     5      Pz                   2.006
     Ti     5      S                    0.279
     Ti     5      Dzz                  0.441
     Ti     5      Dzy                  0.652
     Ti     5      Dzx                  0.636
     Ti     5      Dxx-yy               0.546
     Ti     5      Dxy                  0.473
     Ti     5      Px                   0.304
     Ti     5      Py                   0.324
     Ti     5      Pz                   0.295
     Ti     6      S                    2.003
     Ti     6      Px                   2.006
     Ti     6      Py                   2.006
     Ti     6      Pz                   2.006
     Ti     6      S                    0.285
     Ti     6      Dzz                  0.628
     Ti     6      Dzy                  0.492
     Ti     6      Dzx                  0.483
     Ti     6      Dxx-yy               0.635
     Ti     6      Dxy                  0.495
     Ti     6      Px                   0.318
     Ti     6      Py                   0.347
     Ti     6      Pz                   0.322
      V     1      S                    2.001
      V     1      Px                   2.003
      V     1      Py                   2.003
      V     1      Pz                   2.003
      V     1      Dzz                  0.774
      V     1      Dzy                  0.732
      V     1      Dzx                  0.723
      V     1      Dxx-yy               0.784
      V     1      Dxy                  0.726
      V     1      S                    0.327
      V     1      Px                   0.300
      V     1      Py                   0.325
      V     1      Pz                   0.308
  -------------------------------------------
                           Total:      88.000
  -------------------------------------------

     Atomic Populations (Mulliken)
     -----------------------------
Species          Ion     s       p       d       f      Total   Charge (e)
==========================================================================
  Al              1     0.923   2.125   0.000   0.000   3.048    -0.048
  Ti              1     2.287   7.008   2.735   0.000  12.030    -0.030
  Ti              2     2.282   6.938   2.731   0.000  11.951     0.049
  Ti              3     2.287   7.008   2.735   0.000  12.030    -0.030
  Ti              4     2.282   6.938   2.731   0.000  11.951     0.049
  Ti              5     2.282   6.938   2.731   0.000  11.951     0.049
  Ti              6     2.287   7.008   2.735   0.000  12.030    -0.030
  V               1     2.328   6.943   3.738   0.000  13.009    -0.009
==========================================================================

                 Bond                   Population      Length (A)
======================================================================
              Al 1 -- V 1                    0.56        2.77890
              Al 1 -- Ti 6                   0.54        2.77890
              Ti 1 -- Ti 5                   0.13        2.77890
              Ti 5 -- Ti 6                   0.03        2.77890
              Ti 4 -- V 1                    0.29        2.77890
              Ti 4 -- Ti 6                   0.13        2.77890
              Ti 3 -- Ti 5                   0.13        2.77890
              Ti 3 -- Ti 4                   0.03        2.77890
              Ti 2 -- V 1                    0.29        2.77890
              Ti 2 -- Ti 6                   0.13        2.77890
              Ti 1 -- Ti 2                   0.03        2.77890
              Al 1 -- Ti 3                   0.54        2.77890
              Al 1 -- Ti 1                   0.54        2.77890
              Ti 5 -- V 1                    0.29        2.77890
              Ti 2 -- Ti 3                   0.13        2.77890
              Ti 1 -- Ti 4                   0.13        2.77890
======================================================================


Writing analysis data to ti64_bcc_phonon.castep_bin

Writing model to ti64_bcc_phonon.check
 
 A BibTeX formatted list of references used in this run has been written to 
 ti64_bcc_phonon.bib
 
Initialisation time =     26.33 s
Calculation time    =      4.11 s
Finalisation time   =      4.16 s
Total time          =     34.60 s
Peak Memory Use     = 1706100 kB
 
Overall parallel efficiency rating: Terrible (23%)
 
Data was distributed by:-
k-point (64-way); efficiency rating: Terrible (24%)
 
Parallel notes:
1) Calculation only took 30.4 s, so efficiency estimates may be inaccurate.
