 +-------------------------------------------------+
 |                                                 |
 |      CCC   AA    SSS  TTTTT  EEEEE  PPPP        |
 |     C     A  A  S       T    E      P   P       |
 |     C     AAAA   SS     T    EEE    PPPP        |
 |     C     A  A     S    T    E      P           |
 |      CCC  A  A  SSS     T    EEEEE  P           |
 |                                                 |
 +-------------------------------------------------+
 |                                                 |
 | Welcome to Academic Release CASTEP version 24.1 |
 | Ab Initio Total Energy Program                  |
 |                                                 |
 | Authors:                                        |
 | M. Segall, M. Probert, C. Pickard, P. Hasnip,   |
 | S. Clark, K. Refson, J. R. Yates,               |
 | A. Bartok-Partay, M. Payne                      |
 |                                                 |
 | Contributors:                                   |
 | P. Lindan, P. Haynes, J. White, V. Milman,      |
 | N. Govind, M. Gibson, P. Tulip, V. Cocula,      |
 | B. Montanari, D. Quigley, M. Glover,            |
 | L. Bernasconi, A. Perlov, M. Plummer,           |
 | E. McNellis, J. Meyer, J. Gale, D. Jochym       |
 | J. Aarons, B. Walker, R. Gillen, D. Jones       |
 | T. Green, I. J. Bush, C. J. Armstrong,          |
 | E. J. Higgins, E. L. Brown, M. S. McFly,        |
 | J. Wilkins, B-C. Shih, P. J. P. Byrne,          |
 | R. J. Maurer, J. C. Womack, J. Dziedzic,        |
 | L. LeBlanc, T. K. Stenczel, J. Kermode,         |
 | S. Sturniolo, B. Shi, B. Durham, M. Evans,      |
 | M. J. Smith, A. Tamerus, Z. Hawkhead,           |
 | V. Ravindran, T. Hollins, S. A. Joyce,          |
 | R. T. Strong, A. M. Reilly                      |
 |                                                 |
 | Copyright (c) 2000 - 2023                       |
 |                                                 |
 |     Distributed under license from Cambridge    |
 |     Enterprise for academic use only.           |
 |                                                 |
 | Please cite                                     |
 |                                                 |
 |     "First principles methods using CASTEP"     |
 |                                                 |
 |         Zeitschrift fuer Kristallographie       |
 |           220(5-6) pp. 567-570 (2005)           |
 |                                                 |
 | S. J. Clark, M. D. Segall, C. J. Pickard,       |
 | P. J. Hasnip, M. J. Probert, K. Refson,         |
 | M. C. Payne                                     |
 |                                                 |
 |       in all publications arising from          |
 |              your use of CASTEP                 |
 |                                                 |
 +-------------------------------------------------+
 |                                                 |
 |              http://www.castep.org              |
 |                                                 |
 +-------------------------------------------------+



 Compiled for linux_x86_64_gfortran10 on Tue, 02 May 2023 15:31:46 +0100
 from code version db08e394c+  default  Mon May 1 16:40:39 2023 +0100
 Compiler: GNU Fortran 10.2.0; Optimisation: fast
 Comms   : Open MPI v4.0.5
 MATHLIBS: openblas (LAPACK version 3.9.0)
 FFT Lib : fftw3 version fftw-3.3.8-sse2-avx-avx2-avx2_128
 Fundamental constants values: CODATA 2018

 Run started: Tue, 14 May 2024 20:50:35 +0100
 +-------------------------------------------------+
 |                                                 |
 |  D D D D    F F F F F  P P P P     T T T T T    |
 |  D       D  F          P       P       T        |
 |  D       D  F F F F    P P P P         T        |
 |  D       D  F          P               T        |
 |  D D D D    F          P               T        |
 |                                                 |
 +-------------------------------------------------+
 |                                                 |
 | Welcome to Castep Linear Response (DFPT)        |
 |                                                 |
 | Copyright (c) 2006 - 2023                       |
 |                                                 |
 | Please cite the following publications in all   |
 | work arising from your use of CASTEP LR.        |
 |                                                 |
 | K. Refson, S. J. Clark and P. R. Tulip          |
 | Variational density functional perturbation     |
 | theory for dielectrics and lattice dynamics     |
 | Phys. Rev. B 73(15), 155114 (2006)              |
 +-------------------------------------------------+

Reading continuation data from model file ti64_bcc_phonon_VV.check

 Atomic calculation performed for Ti: 1s2 2s2 2p6 3s2 3p6 3d2 4s2

 Converged in 79 iterations to an ae energy of -23226.658 eV

   ============================================================                
   | Pseudopotential Report - Date of generation 14-05-2024   |                
   ------------------------------------------------------------                
   | Element: Ti Ionic charge: 12.00 Level of theory: PBE     |                
   | Atomic Solver: Koelling-Harmon                           |                
   |                                                          |                
   |               Reference Electronic Structure             |                
   |         Orbital         Occupation         Energy        |                
   |            3s              2.000           -2.302        |                
   |            3p              6.000           -1.428        |                
   |            4s              2.000           -0.164        |                
   |            3d              2.000           -0.157        |                
   |                                                          |                
   |                 Pseudopotential Definition               |                
   |        Beta     l      e      Rc     scheme   norm       |                
   |          1      0   -2.302   1.793     qc      0         |                
   |          2      0   -0.164   1.793     qc      0         |                
   |          3      0    0.250   1.793     qc      0         |                
   |          4      1   -1.428   1.793     qc      0         |                
   |          5      1    0.250   1.793     qc      0         |                
   |          6      2   -0.157   1.793     qc      0         |                
   |          7      2    0.250   1.793     qc      0         |                
   |         loc     3    0.000   1.793     pn      0         |                
   |                                                          |                
   | Augmentation charge Rinner = 1.263                       |                
   | Partial core correction Rc = 1.263                       |                
   ------------------------------------------------------------                
   | "3|1.8|9|10|11|30U:40:31:32(qc=5.5)"                     |                
   ------------------------------------------------------------                
   |      Author: Chris J. Pickard, Cambridge University      |                
   ============================================================                

 Atomic calculation performed for V: 1s2 2s2 2p6 3s2 3p6 3d3 4s2

 Converged in 81 iterations to an ae energy of -25823.733 eV

   ============================================================                
   | Pseudopotential Report - Date of generation 14-05-2024   |                
   ------------------------------------------------------------                
   | Element: V Ionic charge: 13.00 Level of theory: PBE      |                
   | Atomic Solver: Koelling-Harmon                           |                
   |                                                          |                
   |               Reference Electronic Structure             |                
   |         Orbital         Occupation         Energy        |                
   |            3s              2.000           -2.581        |                
   |            3p              6.000           -1.618        |                
   |            3d              3.000           -0.190        |                
   |            4s              2.000           -0.173        |                
   |                                                          |                
   |                 Pseudopotential Definition               |                
   |        Beta     l      e      Rc     scheme   norm       |                
   |          1      0   -2.581   1.803     qc      0         |                
   |          2      0   -0.173   1.803     qc      0         |                
   |          3      0    0.250   1.803     qc      0         |                
   |          4      1   -1.618   1.803     qc      0         |                
   |          5      1    0.250   1.803     qc      0         |                
   |          6      2   -0.190   1.803     qc      0         |                
   |          7      2    0.250   1.803     qc      0         |                
   |         loc     3    0.000   1.803     pn      0         |                
   |                                                          |                
   | Augmentation charge Rinner = 0.600                       |                
   | Partial core correction Rc = 0.600                       |                
   ------------------------------------------------------------                
   | "3|1.8|1.8|0.6|12|14|16|30U:40:31:32(qc=7)"              |                
   ------------------------------------------------------------                
   |      Author: Chris J. Pickard, Cambridge University      |                
   ============================================================                

 Pseudo atomic calculation performed for Ti 3s2 3p6 3d2 4s2

 Converged in 51 iterations to a total energy of -1587.0236 eV

 Pseudo atomic calculation performed for V 3s2 3p6 3d3 4s2

 Converged in 52 iterations to a total energy of -2065.7874 eV
Initialising basis set for model.
Reinitialising basis set for current geometry.
Continuing from previous run with ground state wavefunction.
Continuing from previous run with ground state density.
 WARNING: phonon fine_frequency data in check file HAS BEEN DISCARDED.
          because PHONON_FINE_KPOINT_LIST changed on continuation.
 WARNING: phonon thermal ADP data in check file HAS BEEN DISCARDED.
 Calculation parallelised over 48 processes.
 Data is distributed by k-point(48-way)

 ************************************ Title ************************************
 

 ***************************** General Parameters ******************************
  
 output verbosity                               : normal  (1)
 continuing from                                : ti64_bcc_phonon_VV.check
 write checkpoint data to                       : ti64_bcc_phonon_VV.check
 type of calculation                            : phonon calculation
 stress calculation                             : on
 density difference calculation                 : off
 electron localisation func (ELF) calculation   : off
 Hirshfeld analysis                             : off
 polarisation (Berry phase) analysis            : off
 molecular orbital projected DOS                : off
 deltaSCF calculation                           : off
 unlimited duration calculation
 timing information                             : on
 memory usage estimate                          : on
 write extra output files                       : on
 write final potential to formatted file        : off
 write final density to formatted file          : off
 write structure in CELL formatted file         : on
 write BibTeX reference list                    : on
 write OTFG pseudopotential files               : on
 write electrostatic potential file             : on
 write bands file                               : on
 checkpoint writing                             : both castep_bin and check files
  
 output         length unit                     : A
 output           mass unit                     : amu
 output           time unit                     : ps
 output         charge unit                     : e
 output           spin unit                     : hbar/2
 output         energy unit                     : eV
 output          force unit                     : eV/A
 output       velocity unit                     : A/ps
 output       pressure unit                     : GPa
 output     inv_length unit                     : 1/A
 output      frequency unit                     : THz
 output force constant unit                     : eV/A**2
 output         volume unit                     : A**3
 output   IR intensity unit                     : (D/A)**2/amu
 output         dipole unit                     : D
 output         efield unit                     : eV/A/e
 output        entropy unit                     : J/mol/K
 output    efield chi2 unit                     : pm/V
  
 wavefunctions paging                           : none
 random number generator seed                   :  170831470
 data distribution                              : k-point only
 optimization strategy                          : maximize speed(+++)

 *********************** Exchange-Correlation Parameters ***********************
  
 using functional                               : Perdew Burke Ernzerhof
 relativistic treatment                         : Koelling-Harmon
 DFT+D: Semi-empirical dispersion correction    : off

 ************************* Pseudopotential Parameters **************************
  
 pseudopotential representation                 : reciprocal space
 <beta|phi> representation                      : reciprocal space
 spin-orbit coupling                            : off

 **************************** Basis Set Parameters *****************************
  
 plane wave basis set cut-off                   :   800.0000   eV
 size of standard grid                          :     2.0000
 size of   fine   grid                          :     4.0000
 size of   fine   gmax                          :    57.9620   1/A
 largest prime factor in FFT                    :          5
 finite basis set correction                    : automatic
 number of sample energies                      :          3
           sample  spacing                      :     5.0000   eV

 **************************** Electronic Parameters ****************************
  
 number of  electrons                           :  98.00    
 net charge of system                           :  0.000    
 treating system as non-spin-polarized
 number of bands                                :         84

 ********************* Electronic Minimization Parameters **********************
  
 Method: Treating system as metallic with density mixing treatment of electrons,
         and number of  SD  steps               :          1
         and number of  CG  steps               :          4
  
 total energy / atom convergence tol.           : 0.1000E-08   eV
 eigen-energy convergence tolerance             : 0.9524E-10   eV
 max force / atom convergence tol.              : ignored
 convergence tolerance window                   :          3   cycles
 max. number of SCF cycles                      :         30
 number of fixed-spin iterations                :         10
 smearing scheme                                : Gaussian
 smearing width                                 : 0.5000E-01   eV
 Fermi energy convergence tolerance             : 0.2721E-13   eV
 periodic dipole correction                     : NONE

 ************************** Density Mixing Parameters **************************
  
 density-mixing scheme                          : Pulay
 max. length of mixing history                  :         20
 charge density mixing amplitude                : 0.8000    
 cut-off energy for mixing                      :  800.0       eV
 charge density mixing g-vector                 :  1.500       1/A

 *********************** Population Analysis Parameters ************************
  
 Population analysis with cutoff                :  3.000       A
 Population analysis output                     : summary and pdos components

 ****************************** Phonon Parameters ******************************
  
 phonon calculation method                      : finite displacement
 finite displacement amplitude                  : 0.1000E-01   A
 fine phonon calculation method                 : interpolation
 non-periodic force constant method             : Weighted cumulant sum
 force constant cutoff scale factor             :     1.0000
 LO/TO splitting term                           : not included
 acoustic phonon sum rule                       : correct D(q) in recip-space
 Born effective charges                         : not calculated
 Raman intensities                              : not calculated
 phonon extra output                            : real-space force constants
 phonon k-points                                : use reduced set
 phonon DOS                                     : not calculated
 no timed backups
 band convergence tolerance                     : 0.1000E-08   eV

 ******************************* Developer Code ********************************
  
 PARALLEL: kpoints=48 : ENDPARALLEL
 no_improve_wvfn

 *******************************************************************************
  

                           -------------------------------
                                      Unit Cell
                           -------------------------------
        Real Lattice(A)                      Reciprocal Lattice(1/A)
    -3.1856150     3.1856150     3.1856150       -0.000000000   0.986180894   0.986180894
     3.1856150    -3.1856150     3.1856150        0.986180894  -0.000000000   0.986180894
     3.1856150     3.1856150    -3.1856150        0.986180894   0.986180894  -0.000000000

                       Lattice parameters(A)       Cell Angles
                    a =      5.517647          alpha =  109.471221
                    b =      5.517647          beta  =  109.471221
                    c =      5.517647          gamma =  109.471221

                       Current cell volume =           129.312306       A**3
                                   density =             3.008878   AMU/A**3
                                           =             4.996360     g/cm^3

                           -------------------------------
                                     Cell Contents
                           -------------------------------
                         Total number of ions in cell =    8
                      Total number of species in cell =    2
                        Max number of any one species =    6

            xxxxxxxxxxxxxxxxxxxxxxxxxxxxxxxxxxxxxxxxxxxxxxxxxxxxxxxxxxxx
            x  Element    Atom        Fractional coordinates of atoms  x
            x            Number           u          v          w      x
            x----------------------------------------------------------x
            x  Ti           1         0.000000   0.500000   0.000000   x 
            x  Ti           2         0.000000   0.500000   0.500000   x 
            x  Ti           3         0.500000   0.000000   0.000000   x 
            x  Ti           4         0.500000   0.000000   0.500000   x 
            x  Ti           5         0.500000   0.500000   0.000000   x 
            x  Ti           6         0.500000   0.500000   0.500000   x 
            x  V            1         0.000000   0.000000   0.000000   x 
            x  V            2         0.000000   0.000000   0.500000   x 
            xxxxxxxxxxxxxxxxxxxxxxxxxxxxxxxxxxxxxxxxxxxxxxxxxxxxxxxxxxxx


                         No user defined ionic velocities

                           -------------------------------
                                   Details of Species
                           -------------------------------

                               Mass of species in AMU
                                    Ti   47.8670000
                                    V   50.9415000

                          Electric Quadrupole Moment (Barn)
                                    Ti    0.3020000 Isotope 47
                                    V   -0.0520000 Isotope 51

                          Files used for pseudopotentials:
                                    Ti 3|1.8|9|10|11|30U:40:31:32(qc=5.5)
                                    V 3|1.8|1.8|0.6|12|14|16|30U:40:31:32(qc=7)

                           -------------------------------
                              k-Points For BZ Sampling
                           -------------------------------
                       MP grid size for SCF calculation is 12 12 12
                            with an offset of   0.000  0.000  0.000
                       Number of kpoints used =           182

                           -------------------------------
                               Symmetry and Constraints
                           -------------------------------

                      Cell is a supercell containing 2 primitive cells
                      Maximum deviation from symmetry =  0.00000         ANG

                      Number of symmetry operations   =          24
                      Number of ionic constraints     =           3
                      Point group of crystal =    20: D3d, -3m, -3 2/m
                      Space group of crystal =   166: R-3m, -R 3 2"

             Set iprint > 1 for details on symmetry rotations/translations

                         Centre of mass is constrained
             Set iprint > 1 for details of linear ionic constraints

                         Number of cell constraints= 2
                         Cell constraints are:  1 1 3 4 4 6

                         External pressure/stress (GPa)
                          0.00000   0.00000   0.00000
                                    0.00000   0.00000
                                              0.00000
 Restarting Phonon calculation:  Dynamical matrices from supercells 1 to       4 recovered from .check file.
 %%%%%%%%%%%%%%%%%%%%%%%%%%%%%%%%%%%%%%%%%%%%%%%%%%%%%%%%%%%%%%%%%%%%%%%%%%%%%%%%%%%%%%%%%%%%%%%%%%%%%%%%%%%%%%%%%%%
            Force Constant matrix
 Ion XYZ  L          part  (eV/A**2)
 Supercell   1 at (0,0,0)        0.000 A                             
   1   1          3.005352          0.790875         -0.790875         -0.601725         -0.706355          0.706355
                 -0.113832          0.226848          0.036477          0.049124          0.003131          0.092576
                 -0.652798          0.666510          0.707980          0.290420         -0.023876         -0.061728
                 -0.465745          0.294539         -0.294539          0.111906          0.042488         -0.042488
   1   2          0.790875          3.636826          0.837929         -0.706355         -0.697308          0.638722
                  0.249264         -0.113832         -0.046934         -0.003979         -0.102850          0.035046
                  0.665003         -0.663395         -0.666510          0.038217          0.727704          0.023876
                  0.281206         -0.528953          0.263516         -0.034489         -0.169064          0.302075
   1   3         -0.790875          0.837929          3.636826          0.706355          0.638722         -0.697308
                 -0.046934          0.036477          0.182816          0.088659         -0.007304          0.048876
                  0.659970         -0.665003         -0.652798         -0.074196         -0.038217          0.290420
                 -0.281206          0.263516         -0.528953          0.034489          0.302075         -0.169064
   2   1         -0.601725         -0.706355          0.706355          3.005352          0.790875         -0.790875
                 -0.102850          0.003131         -0.007304         -0.113832          0.226848          0.036477
                 -0.120719         -0.011452          0.249235         -0.652798          0.666510          0.707980
                  0.966039          0.037884         -0.037884         -0.465745          0.294539         -0.294539
   2   2         -0.706355         -0.697308          0.638722          0.790875          3.636826          0.837929
                 -0.003979          0.049124          0.088659          0.249264         -0.113832         -0.046934
                 -0.006105          0.068589          0.011452          0.665003         -0.663395         -0.666510
                 -0.038413          0.235409          0.043838          0.281206         -0.528953          0.263516
   2   3          0.706355          0.638722         -0.697308         -0.790875          0.837929          3.636826
                  0.035046          0.092576          0.048876         -0.046934          0.036477          0.182816
                  0.282251          0.006105         -0.120719          0.659970         -0.665003         -0.652798
                  0.038413          0.043838          0.235409         -0.281206          0.263516         -0.528953
   3   1         -0.113832          0.249264         -0.046934         -0.102850         -0.003979          0.035046
                  3.636826          0.790875          0.837929         -0.697308         -0.706355          0.638722
                 -0.663395          0.665003         -0.666510          0.727704          0.038217          0.023876
                 -0.528953          0.281206          0.263516         -0.169064         -0.034489          0.302075
   3   2          0.226848         -0.113832          0.036477          0.003131          0.049124          0.092576
                  0.790875          3.005352         -0.790875         -0.706355         -0.601725          0.706355
                  0.666510         -0.652798          0.707980         -0.023876          0.290420         -0.061728
                  0.294539         -0.465745         -0.294539          0.042488          0.111906         -0.042488
   3   3          0.036477         -0.046934          0.182816         -0.007304          0.088659          0.048876
                  0.837929         -0.790875          3.636826          0.638722          0.706355         -0.697308
                 -0.665003          0.659970         -0.652798         -0.038217         -0.074196          0.290420
                  0.263516         -0.281206         -0.528953          0.302075          0.034489         -0.169064
   4   1          0.049124         -0.003979          0.088659         -0.113832          0.249264         -0.046934
                 -0.697308         -0.706355          0.638722          3.636826          0.790875          0.837929
                  0.068589         -0.006105          0.011452         -0.663395          0.665003         -0.666510
                  0.235409         -0.038413          0.043838         -0.528953          0.281206          0.263516
   4   2          0.003131         -0.102850         -0.007304          0.226848         -0.113832          0.036477
                 -0.706355         -0.601725          0.706355          0.790875          3.005352         -0.790875
                 -0.011452         -0.120719          0.249235          0.666510         -0.652798          0.707980
                  0.037884          0.966039         -0.037884          0.294539         -0.465745         -0.294539
   4   3          0.092576          0.035046          0.048876          0.036477         -0.046934          0.182816
                  0.638722          0.706355         -0.697308          0.837929         -0.790875          3.636826
                  0.006105          0.282251         -0.120719         -0.665003          0.659970         -0.652798
                  0.043838          0.038413          0.235409          0.263516         -0.281206         -0.528953
   5   1         -0.652798          0.665003          0.659970         -0.120719         -0.006105          0.282251
                 -0.663395          0.666510         -0.665003          0.068589         -0.011452          0.006105
                  3.636826         -0.837929         -0.790875         -0.697308         -0.638722          0.706355
                  0.235409         -0.043838          0.038413          0.068498          0.100523         -0.010534
   5   2          0.666510         -0.663395         -0.665003         -0.011452          0.068589          0.006105
                  0.665003         -0.652798          0.659970         -0.006105         -0.120719          0.282251
                 -0.837929          3.636826         -0.790875         -0.638722         -0.697308          0.706355
                 -0.043838          0.235409          0.038413          0.100523          0.068498         -0.010534
   5   3          0.707980         -0.666510         -0.652798          0.249235          0.011452         -0.120719
                 -0.666510          0.707980         -0.652798          0.011452          0.249235         -0.120719
                 -0.790875         -0.790875          3.005352          0.706355          0.706355         -0.601725
                 -0.037884         -0.037884          0.966039          0.033872          0.033872         -0.161440
   6   1          0.290420          0.038217         -0.074196         -0.652798          0.665003          0.659970
                  0.727704         -0.023876         -0.038217         -0.663395          0.666510         -0.665003
                 -0.697308         -0.638722          0.706355          3.636826         -0.837929         -0.790875
                 -0.528953         -0.263516         -0.281206          0.235409         -0.043838          0.038413
   6   2         -0.023876          0.727704         -0.038217          0.666510         -0.663395         -0.665003
                  0.038217          0.290420         -0.074196          0.665003         -0.652798          0.659970
                 -0.638722         -0.697308          0.706355         -0.837929          3.636826         -0.790875
                 -0.263516         -0.528953         -0.281206         -0.043838          0.235409          0.038413
   6   3         -0.061728          0.023876          0.290420          0.707980         -0.666510         -0.652798
                  0.023876         -0.061728          0.290420         -0.666510          0.707980         -0.652798
                  0.706355          0.706355         -0.601725         -0.790875         -0.790875          3.005352
                 -0.294539         -0.294539         -0.465745         -0.037884         -0.037884          0.966039
   7   1         -0.465745          0.281206         -0.281206          0.966039         -0.038413          0.038413
                 -0.528953          0.294539          0.263516          0.235409          0.037884          0.043838
                  0.235409         -0.043838         -0.037884         -0.528953         -0.263516         -0.294539
                  2.993874         -0.804280          0.804280         -0.316630          0.153674         -0.153674
   7   2          0.294539         -0.528953          0.263516          0.037884          0.235409          0.043838
                  0.281206         -0.465745         -0.281206         -0.038413          0.966039          0.038413
                 -0.043838          0.235409         -0.037884         -0.263516         -0.528953         -0.294539
                 -0.804280          2.993874          0.804280          0.153674         -0.316630         -0.153674
   7   3         -0.294539          0.263516         -0.528953         -0.037884          0.043838          0.235409
                  0.263516         -0.294539         -0.528953          0.043838         -0.037884          0.235409
                  0.038413          0.038413          0.966039         -0.281206         -0.281206         -0.465745
                  0.804280          0.804280          2.993874         -0.153674         -0.153674         -0.316630
   8   1          0.111906         -0.034489          0.034489         -0.465745          0.281206         -0.281206
                 -0.169064          0.042488          0.302075         -0.528953          0.294539          0.263516
                  0.068498          0.100523          0.033872          0.235409         -0.043838         -0.037884
                 -0.316630          0.153674         -0.153674          2.993874         -0.804280          0.804280
   8   2          0.042488         -0.169064          0.302075          0.294539         -0.528953          0.263516
                 -0.034489          0.111906          0.034489          0.281206         -0.465745         -0.281206
                  0.100523          0.068498          0.033872         -0.043838          0.235409         -0.037884
                  0.153674         -0.316630         -0.153674         -0.804280          2.993874          0.804280
   8   3         -0.042488          0.302075         -0.169064         -0.294539          0.263516         -0.528953
                  0.302075         -0.042488         -0.169064          0.263516         -0.294539         -0.528953
                 -0.010534         -0.010534         -0.161440          0.038413          0.038413          0.966039
                 -0.153674         -0.153674         -0.316630          0.804280          0.804280          2.993874

 Supercell   2 at (1,0,0)        5.518 A                             
   1   1         -0.004857         -0.002522         -0.033568          0.018929         -0.014830         -0.084823
                  0.290420          0.061728          0.023876          0.025118          0.082044         -0.014730
                 -0.652798          0.666510          0.707980         -0.120719         -0.011452          0.249235
                  0.053476         -0.099594         -0.040165         -0.020738          0.002809         -0.002809
   1   2         -0.002522          0.010868          0.070599         -0.014830         -0.081706          0.013389
                  0.074196          0.290420         -0.038217          0.081504          0.025118         -0.029259
                  0.665003         -0.663395         -0.666510         -0.006105          0.068589          0.011452
                 -0.103938          0.064343          0.046924         -0.019437         -0.053402         -0.007399
   1   3         -0.033568          0.070599         -0.048958         -0.084823          0.013389          0.043866
                 -0.038217          0.023876          0.727704         -0.029259         -0.014730         -0.049397
                  0.659970         -0.665003         -0.652798          0.282251          0.006105         -0.120719
                  0.008854         -0.015466         -0.105507          0.019437         -0.007399         -0.053402
   2   1          0.018929         -0.014830         -0.084823         -0.004857         -0.002522         -0.033568
                 -0.652798         -0.707980         -0.666510          0.290420          0.061728          0.023876
                  0.290420         -0.023876         -0.061728         -0.652798          0.666510          0.707980
                  0.091669         -0.000316          0.000316          0.053476         -0.099594         -0.040165
   2   2         -0.014830         -0.081706          0.013389         -0.002522          0.010868          0.070599
                 -0.659970         -0.652798         -0.665003          0.074196          0.290420         -0.038217
                  0.038217          0.727704          0.023876          0.665003         -0.663395         -0.666510
                 -0.006093         -0.184338         -0.346689         -0.103938          0.064343          0.046924
   2   3         -0.084823          0.013389          0.043866         -0.033568          0.070599         -0.048958
                 -0.665003         -0.666510         -0.663395         -0.038217          0.023876          0.727704
                 -0.074196         -0.038217          0.290420          0.659970         -0.665003         -0.652798
                  0.006093         -0.346689         -0.184338          0.008854         -0.015466         -0.105507
   3   1          0.290420          0.074196         -0.038217         -0.652798         -0.659970         -0.665003
                 -0.003428         -0.050377         -0.075513          0.084997          0.032896         -0.102074
                  0.048876         -0.088659         -0.007304          0.182816          0.046934          0.036477
                 -0.528953          0.281206          0.263516          0.235409         -0.038413          0.043838
   3   2          0.061728          0.290420          0.023876         -0.707980         -0.652798         -0.666510
                 -0.050377          0.015295          0.050377          0.032896         -0.143654         -0.032896
                 -0.092576          0.049124         -0.003131         -0.036477         -0.113832         -0.226848
                  0.294539         -0.465745         -0.294539          0.037884          0.966039         -0.037884
   3   3          0.023876         -0.038217          0.727704         -0.666510         -0.665003         -0.663395
                 -0.075513          0.050377         -0.003428         -0.102074         -0.032896          0.084997
                  0.035046          0.003979         -0.102850         -0.046934         -0.249264         -0.113832
                  0.263516         -0.281206         -0.528953          0.043838          0.038413          0.235409
   4   1          0.025118          0.081504         -0.029259          0.290420          0.074196         -0.038217
                  0.084997          0.032896         -0.102074         -0.003428         -0.050377         -0.075513
                  0.037212          0.006187          0.012038          0.048876         -0.088659         -0.007304
                 -0.169064         -0.034489          0.302075         -0.528953          0.281206          0.263516
   4   2          0.082044          0.025118         -0.014730          0.061728          0.290420          0.023876
                  0.032896         -0.143654         -0.032896         -0.050377          0.015295          0.050377
                 -0.012038         -0.074027          0.029381         -0.092576          0.049124         -0.003131
                  0.042488          0.111906         -0.042488          0.294539         -0.465745         -0.294539
   4   3         -0.014730         -0.029259         -0.049397          0.023876         -0.038217          0.727704
                 -0.102074         -0.032896          0.084997         -0.075513          0.050377         -0.003428
                 -0.006187          0.006265         -0.074027          0.035046          0.003979         -0.102850
                  0.302075          0.034489         -0.169064          0.263516         -0.281206         -0.528953
   5   1         -0.652798          0.665003          0.659970          0.290420          0.038217         -0.074196
                  0.048876         -0.092576          0.035046          0.037212         -0.012038         -0.006187
                 -0.048958         -0.070599         -0.033568          0.043866         -0.013389         -0.084823
                 -0.184338          0.346689          0.006093          0.064343         -0.046924          0.103938
   5   2          0.666510         -0.663395         -0.665003         -0.023876          0.727704         -0.038217
                 -0.088659          0.049124          0.003979          0.006187         -0.074027          0.006265
                 -0.070599          0.010868          0.002522         -0.013389         -0.081706          0.014830
                  0.346689         -0.184338          0.006093          0.015466         -0.105507          0.008854
   5   3          0.707980         -0.666510         -0.652798         -0.061728          0.023876          0.290420
                 -0.007304         -0.003131         -0.102850          0.012038          0.029381         -0.074027
                 -0.033568          0.002522         -0.004857         -0.084823          0.014830          0.018929
                  0.000316          0.000316          0.091669          0.099594         -0.040165          0.053476
   6   1         -0.120719         -0.006105          0.282251         -0.652798          0.665003          0.659970
                  0.182816         -0.036477         -0.046934          0.048876         -0.092576          0.035046
                  0.043866         -0.013389         -0.084823         -0.048958         -0.070599         -0.033568
                 -0.105507          0.015466          0.008854         -0.184338          0.346689          0.006093
   6   2         -0.011452          0.068589          0.006105          0.666510         -0.663395         -0.665003
                  0.046934         -0.113832         -0.249264         -0.088659          0.049124          0.003979
                 -0.013389         -0.081706          0.014830         -0.070599          0.010868          0.002522
                 -0.046924          0.064343          0.103938          0.346689         -0.184338          0.006093
   6   3          0.249235          0.011452         -0.120719          0.707980         -0.666510         -0.652798
                  0.036477         -0.226848         -0.113832         -0.007304         -0.003131         -0.102850
                 -0.084823          0.014830          0.018929         -0.033568          0.002522         -0.004857
                 -0.040165          0.099594          0.053476          0.000316          0.000316          0.091669
   7   1          0.053476         -0.103938          0.008854          0.091669         -0.006093          0.006093
                 -0.528953          0.294539          0.263516         -0.169064          0.042488          0.302075
                 -0.184338          0.346689          0.000316         -0.105507         -0.046924         -0.040165
                 -0.120149          0.196453          0.266546          0.053148          0.010310         -0.098886
   7   2         -0.099594          0.064343         -0.015466         -0.000316         -0.184338         -0.346689
                  0.281206         -0.465745         -0.281206         -0.034489          0.111906          0.034489
                  0.346689         -0.184338          0.000316          0.015466          0.064343          0.099594
                  0.196453         -0.093097         -0.196453          0.010310         -0.128398         -0.010310
   7   3         -0.040165          0.046924         -0.105507          0.000316         -0.346689         -0.184338
                  0.263516         -0.294539         -0.528953          0.302075         -0.042488         -0.169064
                  0.006093          0.006093          0.091669          0.008854          0.103938          0.053476
                  0.266546         -0.196453         -0.120149         -0.098886         -0.010310          0.053148
   8   1         -0.020738         -0.019437          0.019437          0.053476         -0.103938          0.008854
                  0.235409          0.037884          0.043838         -0.528953          0.294539          0.263516
                  0.064343          0.015466          0.099594         -0.184338          0.346689          0.000316
                  0.053148          0.010310         -0.098886         -0.120149          0.196453          0.266546
   8   2          0.002809         -0.053402         -0.007399         -0.099594          0.064343         -0.015466
                 -0.038413          0.966039          0.038413          0.281206         -0.465745         -0.281206
                 -0.046924         -0.105507         -0.040165          0.346689         -0.184338          0.000316
                  0.010310         -0.128398         -0.010310          0.196453         -0.093097         -0.196453
   8   3         -0.002809         -0.007399         -0.053402         -0.040165          0.046924         -0.105507
                  0.043838         -0.037884          0.235409          0.263516         -0.294539         -0.528953
                  0.103938          0.008854          0.053476          0.006093          0.006093          0.091669
                 -0.098886         -0.010310          0.053148          0.266546         -0.196453         -0.120149

 Supercell   3 at (0,1,0)        5.518 A                             
   1   1          0.015295         -0.050377          0.050377         -0.143654          0.032896         -0.032896
                  0.290420          0.061728          0.023876         -0.652798         -0.707980         -0.666510
                  0.049124         -0.092576         -0.003131         -0.113832         -0.036477         -0.226848
                 -0.465745          0.294539         -0.294539          0.966039          0.037884         -0.037884
   1   2         -0.050377         -0.003428         -0.075513          0.032896          0.084997         -0.102074
                  0.074196          0.290420         -0.038217         -0.659970         -0.652798         -0.665003
                 -0.088659          0.048876         -0.007304          0.046934          0.182816          0.036477
                  0.281206         -0.528953          0.263516         -0.038413          0.235409          0.043838
   1   3          0.050377         -0.075513         -0.003428         -0.032896         -0.102074          0.084997
                 -0.038217          0.023876          0.727704         -0.665003         -0.666510         -0.663395
                  0.003979          0.035046         -0.102850         -0.249264         -0.046934         -0.113832
                 -0.281206          0.263516         -0.528953          0.038413          0.043838          0.235409
   2   1         -0.143654          0.032896         -0.032896          0.015295         -0.050377          0.050377
                  0.025118          0.082044         -0.014730          0.290420          0.061728          0.023876
                 -0.074027         -0.012038          0.029381          0.049124         -0.092576         -0.003131
                  0.111906          0.042488         -0.042488         -0.465745          0.294539         -0.294539
   2   2          0.032896          0.084997         -0.102074         -0.050377         -0.003428         -0.075513
                  0.081504          0.025118         -0.029259          0.074196          0.290420         -0.038217
                  0.006187          0.037212          0.012038         -0.088659          0.048876         -0.007304
                 -0.034489         -0.169064          0.302075          0.281206         -0.528953          0.263516
   2   3         -0.032896         -0.102074          0.084997          0.050377         -0.075513         -0.003428
                 -0.029259         -0.014730         -0.049397         -0.038217          0.023876          0.727704
                  0.006265         -0.006187         -0.074027          0.003979          0.035046         -0.102850
                  0.034489          0.302075         -0.169064         -0.281206          0.263516         -0.528953
   3   1          0.290420          0.074196         -0.038217          0.025118          0.081504         -0.029259
                  0.010868         -0.002522          0.070599         -0.081706         -0.014830          0.013389
                 -0.663395          0.665003         -0.666510          0.068589         -0.006105          0.011452
                  0.064343         -0.103938          0.046924         -0.053402         -0.019437         -0.007399
   3   2          0.061728          0.290420          0.023876          0.082044          0.025118         -0.014730
                 -0.002522         -0.004857         -0.033568         -0.014830          0.018929         -0.084823
                  0.666510         -0.652798          0.707980         -0.011452         -0.120719          0.249235
                 -0.099594          0.053476         -0.040165          0.002809         -0.020738         -0.002809
   3   3          0.023876         -0.038217          0.727704         -0.014730         -0.029259         -0.049397
                  0.070599         -0.033568         -0.048958          0.013389         -0.084823          0.043866
                 -0.665003          0.659970         -0.652798          0.006105          0.282251         -0.120719
                 -0.015466          0.008854         -0.105507         -0.007399          0.019437         -0.053402
   4   1         -0.652798         -0.659970         -0.665003          0.290420          0.074196         -0.038217
                 -0.081706         -0.014830          0.013389          0.010868         -0.002522          0.070599
                  0.727704          0.038217          0.023876         -0.663395          0.665003         -0.666510
                 -0.184338         -0.006093         -0.346689          0.064343         -0.103938          0.046924
   4   2         -0.707980         -0.652798         -0.666510          0.061728          0.290420          0.023876
                 -0.014830          0.018929         -0.084823         -0.002522         -0.004857         -0.033568
                 -0.023876          0.290420         -0.061728          0.666510         -0.652798          0.707980
                 -0.000316          0.091669          0.000316         -0.099594          0.053476         -0.040165
   4   3         -0.666510         -0.665003         -0.663395          0.023876         -0.038217          0.727704
                  0.013389         -0.084823          0.043866          0.070599         -0.033568         -0.048958
                 -0.038217         -0.074196          0.290420         -0.665003          0.659970         -0.652798
                 -0.346689          0.006093         -0.184338         -0.015466          0.008854         -0.105507
   5   1          0.049124         -0.088659          0.003979         -0.074027          0.006187          0.006265
                 -0.663395          0.666510         -0.665003          0.727704         -0.023876         -0.038217
                  0.010868         -0.070599          0.002522         -0.081706         -0.013389          0.014830
                 -0.184338          0.346689          0.006093         -0.105507          0.015466          0.008854
   5   2         -0.092576          0.048876          0.035046         -0.012038          0.037212         -0.006187
                  0.665003         -0.652798          0.659970          0.038217          0.290420         -0.074196
                 -0.070599         -0.048958         -0.033568         -0.013389          0.043866         -0.084823
                  0.346689         -0.184338          0.006093         -0.046924          0.064343          0.103938
   5   3         -0.003131         -0.007304         -0.102850          0.029381          0.012038         -0.074027
                 -0.666510          0.707980         -0.652798          0.023876         -0.061728          0.290420
                  0.002522         -0.033568         -0.004857          0.014830         -0.084823          0.018929
                  0.000316          0.000316          0.091669         -0.040165          0.099594          0.053476
   6   1         -0.113832          0.046934         -0.249264          0.049124         -0.088659          0.003979
                  0.068589         -0.011452          0.006105         -0.663395          0.666510         -0.665003
                 -0.081706         -0.013389          0.014830          0.010868         -0.070599          0.002522
                  0.064343         -0.046924          0.103938         -0.184338          0.346689          0.006093
   6   2         -0.036477          0.182816         -0.046934         -0.092576          0.048876          0.035046
                 -0.006105         -0.120719          0.282251          0.665003         -0.652798          0.659970
                 -0.013389          0.043866         -0.084823         -0.070599         -0.048958         -0.033568
                  0.015466         -0.105507          0.008854          0.346689         -0.184338          0.006093
   6   3         -0.226848          0.036477         -0.113832         -0.003131         -0.007304         -0.102850
                  0.011452          0.249235         -0.120719         -0.666510          0.707980         -0.652798
                  0.014830         -0.084823          0.018929          0.002522         -0.033568         -0.004857
                  0.099594         -0.040165          0.053476          0.000316          0.000316          0.091669
   7   1         -0.465745          0.281206         -0.281206          0.111906         -0.034489          0.034489
                  0.064343         -0.099594         -0.015466         -0.184338         -0.000316         -0.346689
                 -0.184338          0.346689          0.000316          0.064343          0.015466          0.099594
                 -0.093097          0.196453         -0.196453         -0.128398          0.010310         -0.010310
   7   2          0.294539         -0.528953          0.263516          0.042488         -0.169064          0.302075
                 -0.103938          0.053476          0.008854         -0.006093          0.091669          0.006093
                  0.346689         -0.184338          0.000316         -0.046924         -0.105507         -0.040165
                  0.196453         -0.120149          0.266546          0.010310          0.053148         -0.098886
   7   3         -0.294539          0.263516         -0.528953         -0.042488          0.302075         -0.169064
                  0.046924         -0.040165         -0.105507         -0.346689          0.000316         -0.184338
                  0.006093          0.006093          0.091669          0.103938          0.008854          0.053476
                 -0.196453          0.266546         -0.120149         -0.010310         -0.098886          0.053148
   8   1          0.966039         -0.038413          0.038413         -0.465745          0.281206         -0.281206
                 -0.053402          0.002809         -0.007399          0.064343         -0.099594         -0.015466
                 -0.105507         -0.046924         -0.040165         -0.184338          0.346689          0.000316
                 -0.128398          0.010310         -0.010310         -0.093097          0.196453         -0.196453
   8   2          0.037884          0.235409          0.043838          0.294539         -0.528953          0.263516
                 -0.019437         -0.020738          0.019437         -0.103938          0.053476          0.008854
                  0.015466          0.064343          0.099594          0.346689         -0.184338          0.000316
                  0.010310          0.053148         -0.098886          0.196453         -0.120149          0.266546
   8   3         -0.037884          0.043838          0.235409         -0.294539          0.263516         -0.528953
                 -0.007399         -0.002809         -0.053402          0.046924         -0.040165         -0.105507
                  0.008854          0.103938          0.053476          0.006093          0.006093          0.091669
                 -0.010310         -0.098886          0.053148         -0.196453          0.266546         -0.120149

 Supercell   4 at (1,1,0)        6.371 A                             
   1   1          0.055948         -0.017253         -0.002351          0.018929          0.084823          0.014830
                 -0.113832          0.226848          0.036477         -0.102850          0.003131         -0.007304
                  0.049124         -0.092576         -0.003131         -0.074027         -0.012038          0.029381
                  0.053476         -0.099594         -0.040165          0.091669         -0.000316          0.000316
   1   2         -0.017253         -0.043946         -0.004102          0.084823          0.043866          0.013389
                  0.249264         -0.113832         -0.046934         -0.003979          0.049124          0.088659
                 -0.088659          0.048876         -0.007304          0.006187          0.037212          0.012038
                 -0.103938          0.064343          0.046924         -0.006093         -0.184338         -0.346689
   1   3         -0.002351         -0.004102         -0.309620          0.014830          0.013389         -0.081706
                 -0.046934          0.036477          0.182816          0.035046          0.092576          0.048876
                  0.003979          0.035046         -0.102850          0.006265         -0.006187         -0.074027
                  0.008854         -0.015466         -0.105507          0.006093         -0.346689         -0.184338
   2   1          0.018929          0.084823          0.014830          0.055948         -0.017253         -0.002351
                  0.049124          0.003131          0.092576         -0.113832          0.226848          0.036477
                 -0.113832         -0.036477         -0.226848          0.049124         -0.092576         -0.003131
                 -0.020738          0.002809         -0.002809          0.053476         -0.099594         -0.040165
   2   2          0.084823          0.043866          0.013389         -0.017253         -0.043946         -0.004102
                 -0.003979         -0.102850          0.035046          0.249264         -0.113832         -0.046934
                  0.046934          0.182816          0.036477         -0.088659          0.048876         -0.007304
                 -0.019437         -0.053402         -0.007399         -0.103938          0.064343          0.046924
   2   3          0.014830          0.013389         -0.081706         -0.002351         -0.004102         -0.309620
                  0.088659         -0.007304          0.048876         -0.046934          0.036477          0.182816
                 -0.249264         -0.046934         -0.113832          0.003979          0.035046         -0.102850
                  0.019437         -0.007399         -0.053402          0.008854         -0.015466         -0.105507
   3   1         -0.113832          0.249264         -0.046934          0.049124         -0.003979          0.088659
                 -0.043946         -0.017253         -0.004102          0.043866          0.084823          0.013389
                  0.048876         -0.088659         -0.007304          0.037212          0.006187          0.012038
                  0.064343         -0.103938          0.046924         -0.184338         -0.006093         -0.346689
   3   2          0.226848         -0.113832          0.036477          0.003131         -0.102850         -0.007304
                 -0.017253          0.055948         -0.002351          0.084823          0.018929          0.014830
                 -0.092576          0.049124         -0.003131         -0.012038         -0.074027          0.029381
                 -0.099594          0.053476         -0.040165         -0.000316          0.091669          0.000316
   3   3          0.036477         -0.046934          0.182816          0.092576          0.035046          0.048876
                 -0.004102         -0.002351         -0.309620          0.013389          0.014830         -0.081706
                  0.035046          0.003979         -0.102850         -0.006187          0.006265         -0.074027
                 -0.015466          0.008854         -0.105507         -0.346689          0.006093         -0.184338
   4   1         -0.102850         -0.003979          0.035046         -0.113832          0.249264         -0.046934
                  0.043866          0.084823          0.013389         -0.043946         -0.017253         -0.004102
                  0.182816          0.046934          0.036477          0.048876         -0.088659         -0.007304
                 -0.053402         -0.019437         -0.007399          0.064343         -0.103938          0.046924
   4   2          0.003131          0.049124          0.092576          0.226848         -0.113832          0.036477
                  0.084823          0.018929          0.014830         -0.017253          0.055948         -0.002351
                 -0.036477         -0.113832         -0.226848         -0.092576          0.049124         -0.003131
                  0.002809         -0.020738         -0.002809         -0.099594          0.053476         -0.040165
   4   3         -0.007304          0.088659          0.048876          0.036477         -0.046934          0.182816
                  0.013389          0.014830         -0.081706         -0.004102         -0.002351         -0.309620
                 -0.046934         -0.249264         -0.113832          0.035046          0.003979         -0.102850
                 -0.007399          0.019437         -0.053402         -0.015466          0.008854         -0.105507
   5   1          0.049124         -0.088659          0.003979         -0.113832          0.046934         -0.249264
                  0.048876         -0.092576          0.035046          0.182816         -0.036477         -0.046934
                 -0.003810          0.021701         -0.025499          0.084997          0.102074         -0.032896
                  0.235409         -0.043838          0.038413         -0.528953         -0.263516         -0.281206
   5   2         -0.092576          0.048876          0.035046         -0.036477          0.182816         -0.046934
                 -0.088659          0.049124          0.003979          0.046934         -0.113832         -0.249264
                  0.021701         -0.003810         -0.025499          0.102074          0.084997         -0.032896
                 -0.043838          0.235409          0.038413         -0.263516         -0.528953         -0.281206
   5   3         -0.003131         -0.007304         -0.102850         -0.226848          0.036477         -0.113832
                 -0.007304         -0.003131         -0.102850          0.036477         -0.226848         -0.113832
                 -0.025499         -0.025499         -0.149666         -0.032896         -0.032896         -0.143654
                 -0.037884         -0.037884          0.966039         -0.294539         -0.294539         -0.465745
   6   1         -0.074027          0.006187          0.006265          0.049124         -0.088659          0.003979
                  0.037212         -0.012038         -0.006187          0.048876         -0.092576          0.035046
                  0.084997          0.102074         -0.032896         -0.003810          0.021701         -0.025499
                  0.068498          0.100523         -0.010534          0.235409         -0.043838          0.038413
   6   2         -0.012038          0.037212         -0.006187         -0.092576          0.048876          0.035046
                  0.006187         -0.074027          0.006265         -0.088659          0.049124          0.003979
                  0.102074          0.084997         -0.032896          0.021701         -0.003810         -0.025499
                  0.100523          0.068498         -0.010534         -0.043838          0.235409          0.038413
   6   3          0.029381          0.012038         -0.074027         -0.003131         -0.007304         -0.102850
                  0.012038          0.029381         -0.074027         -0.007304         -0.003131         -0.102850
                 -0.032896         -0.032896         -0.143654         -0.025499         -0.025499         -0.149666
                  0.033872          0.033872         -0.161440         -0.037884         -0.037884          0.966039
   7   1          0.053476         -0.103938          0.008854         -0.020738         -0.019437          0.019437
                  0.064343         -0.099594         -0.015466         -0.053402          0.002809         -0.007399
                  0.235409         -0.043838         -0.037884          0.068498          0.100523          0.033872
                  0.191659         -0.004207          0.020081          0.053148          0.098886         -0.010310
   7   2         -0.099594          0.064343         -0.015466          0.002809         -0.053402         -0.007399
                 -0.103938          0.053476          0.008854         -0.019437         -0.020738          0.019437
                 -0.043838          0.235409         -0.037884          0.100523          0.068498          0.033872
                 -0.004207          0.191659          0.020081          0.098886          0.053148         -0.010310
   7   3         -0.040165          0.046924         -0.105507         -0.002809         -0.007399         -0.053402
                  0.046924         -0.040165         -0.105507         -0.007399         -0.002809         -0.053402
                  0.038413          0.038413          0.966039         -0.010534         -0.010534         -0.161440
                  0.020081          0.020081         -0.285549         -0.010310         -0.010310         -0.128398
   8   1          0.091669         -0.006093          0.006093          0.053476         -0.103938          0.008854
                 -0.184338         -0.000316         -0.346689          0.064343         -0.099594         -0.015466
                 -0.528953         -0.263516         -0.294539          0.235409         -0.043838         -0.037884
                  0.053148          0.098886         -0.010310          0.191659         -0.004207          0.020081
   8   2         -0.000316         -0.184338         -0.346689         -0.099594          0.064343         -0.015466
                 -0.006093          0.091669          0.006093         -0.103938          0.053476          0.008854
                 -0.263516         -0.528953         -0.294539         -0.043838          0.235409         -0.037884
                  0.098886          0.053148         -0.010310         -0.004207          0.191659          0.020081
   8   3          0.000316         -0.346689         -0.184338         -0.040165          0.046924         -0.105507
                 -0.346689          0.000316         -0.184338          0.046924         -0.040165         -0.105507
                 -0.281206         -0.281206         -0.465745          0.038413          0.038413          0.966039
                 -0.010310         -0.010310         -0.128398          0.020081          0.020081         -0.285549

 Supercell   5 at (0,0,1)        5.518 A                             
   1   1         -0.019060          0.051956         -0.051956         -0.601725         -0.706355          0.706355
                 -0.074027         -0.029381          0.012038         -0.102850          0.003131         -0.007304
                  0.025118          0.014730         -0.082044         -0.120719         -0.011452          0.249235
                 -0.161440         -0.033872          0.033872          0.966039          0.037884         -0.037884
   1   2          0.051956         -0.004613         -0.041914         -0.706355         -0.697308          0.638722
                 -0.006265         -0.074027         -0.006187         -0.003979          0.049124          0.088659
                  0.029259         -0.049397         -0.014730         -0.006105          0.068589          0.011452
                  0.010534          0.068498         -0.100523         -0.038413          0.235409          0.043838
   1   3         -0.051956         -0.041914         -0.004613          0.706355          0.638722         -0.697308
                 -0.006187          0.012038          0.037212          0.035046          0.092576          0.048876
                 -0.081504         -0.029259          0.025118          0.282251          0.006105         -0.120719
                 -0.010534         -0.100523          0.068498          0.038413          0.043838          0.235409
   2   1         -0.601725         -0.706355          0.706355         -0.019060          0.051956         -0.051956
                  0.049124          0.003131          0.092576         -0.074027         -0.029381          0.012038
                  0.290420         -0.023876         -0.061728          0.025118          0.014730         -0.082044
                  0.111906          0.042488         -0.042488         -0.161440         -0.033872          0.033872
   2   2         -0.706355         -0.697308          0.638722          0.051956         -0.004613         -0.041914
                 -0.003979         -0.102850          0.035046         -0.006265         -0.074027         -0.006187
                  0.038217          0.727704          0.023876          0.029259         -0.049397         -0.014730
                 -0.034489         -0.169064          0.302075          0.010534          0.068498         -0.100523
   2   3          0.706355          0.638722         -0.697308         -0.051956         -0.041914         -0.004613
                  0.088659         -0.007304          0.048876         -0.006187          0.012038          0.037212
                 -0.074196         -0.038217          0.290420         -0.081504         -0.029259          0.025118
                  0.034489          0.302075         -0.169064         -0.010534         -0.100523          0.068498
   3   1         -0.074027         -0.006265         -0.006187          0.049124         -0.003979          0.088659
                 -0.004613          0.051956         -0.041914         -0.697308         -0.706355          0.638722
                 -0.049397          0.029259         -0.014730          0.068589         -0.006105          0.011452
                  0.068498          0.010534         -0.100523          0.235409         -0.038413          0.043838
   3   2         -0.029381         -0.074027          0.012038          0.003131         -0.102850         -0.007304
                  0.051956         -0.019060         -0.051956         -0.706355         -0.601725          0.706355
                  0.014730          0.025118         -0.082044         -0.011452         -0.120719          0.249235
                 -0.033872         -0.161440          0.033872          0.037884          0.966039         -0.037884
   3   3          0.012038         -0.006187          0.037212          0.092576          0.035046          0.048876
                 -0.041914         -0.051956         -0.004613          0.638722          0.706355         -0.697308
                 -0.029259         -0.081504          0.025118          0.006105          0.282251         -0.120719
                 -0.100523         -0.010534          0.068498          0.043838          0.038413          0.235409
   4   1         -0.102850         -0.003979          0.035046         -0.074027         -0.006265         -0.006187
                 -0.697308         -0.706355          0.638722         -0.004613          0.051956         -0.041914
                  0.727704          0.038217          0.023876         -0.049397          0.029259         -0.014730
                 -0.169064         -0.034489          0.302075          0.068498          0.010534         -0.100523
   4   2          0.003131          0.049124          0.092576         -0.029381         -0.074027          0.012038
                 -0.706355         -0.601725          0.706355          0.051956         -0.019060         -0.051956
                 -0.023876          0.290420         -0.061728          0.014730          0.025118         -0.082044
                  0.042488          0.111906         -0.042488         -0.033872         -0.161440          0.033872
   4   3         -0.007304          0.088659          0.048876          0.012038         -0.006187          0.037212
                  0.638722          0.706355         -0.697308         -0.041914         -0.051956         -0.004613
                 -0.038217         -0.074196          0.290420         -0.029259         -0.081504          0.025118
                  0.302075          0.034489         -0.169064         -0.100523         -0.010534          0.068498
   5   1          0.025118          0.029259         -0.081504          0.290420          0.038217         -0.074196
                 -0.049397          0.014730         -0.029259          0.727704         -0.023876         -0.038217
                 -0.004613          0.041914         -0.051956         -0.697308         -0.638722          0.706355
                 -0.169064         -0.302075          0.034489         -0.528953         -0.263516         -0.281206
   5   2          0.014730         -0.049397         -0.029259         -0.023876          0.727704         -0.038217
                  0.029259          0.025118         -0.081504          0.038217          0.290420         -0.074196
                  0.041914         -0.004613         -0.051956         -0.638722         -0.697308          0.706355
                 -0.302075         -0.169064          0.034489         -0.263516         -0.528953         -0.281206
   5   3         -0.082044         -0.014730          0.025118         -0.061728          0.023876          0.290420
                 -0.014730         -0.082044          0.025118          0.023876         -0.061728          0.290420
                 -0.051956         -0.051956         -0.019060          0.706355          0.706355         -0.601725
                 -0.042488         -0.042488          0.111906         -0.294539         -0.294539         -0.465745
   6   1         -0.120719         -0.006105          0.282251          0.025118          0.029259         -0.081504
                  0.068589         -0.011452          0.006105         -0.049397          0.014730         -0.029259
                 -0.697308         -0.638722          0.706355         -0.004613          0.041914         -0.051956
                  0.068498          0.100523         -0.010534         -0.169064         -0.302075          0.034489
   6   2         -0.011452          0.068589          0.006105          0.014730         -0.049397         -0.029259
                 -0.006105         -0.120719          0.282251          0.029259          0.025118         -0.081504
                 -0.638722         -0.697308          0.706355          0.041914         -0.004613         -0.051956
                  0.100523          0.068498         -0.010534         -0.302075         -0.169064          0.034489
   6   3          0.249235          0.011452         -0.120719         -0.082044         -0.014730          0.025118
                  0.011452          0.249235         -0.120719         -0.014730         -0.082044          0.025118
                  0.706355          0.706355         -0.601725         -0.051956         -0.051956         -0.019060
                  0.033872          0.033872         -0.161440         -0.042488         -0.042488          0.111906
   7   1         -0.161440          0.010534         -0.010534          0.111906         -0.034489          0.034489
                  0.068498         -0.033872         -0.100523         -0.169064          0.042488          0.302075
                 -0.169064         -0.302075         -0.042488          0.068498          0.100523          0.033872
                  0.065999         -0.131919          0.131919         -0.316630          0.153674         -0.153674
   7   2         -0.033872          0.068498         -0.100523          0.042488         -0.169064          0.302075
                  0.010534         -0.161440         -0.010534         -0.034489          0.111906          0.034489
                 -0.302075         -0.169064         -0.042488          0.100523          0.068498          0.033872
                 -0.131919          0.065999          0.131919          0.153674         -0.316630         -0.153674
   7   3          0.033872         -0.100523          0.068498         -0.042488          0.302075         -0.169064
                 -0.100523          0.033872          0.068498          0.302075         -0.042488         -0.169064
                  0.034489          0.034489          0.111906         -0.010534         -0.010534         -0.161440
                  0.131919          0.131919          0.065999         -0.153674         -0.153674         -0.316630
   8   1          0.966039         -0.038413          0.038413         -0.161440          0.010534         -0.010534
                  0.235409          0.037884          0.043838          0.068498         -0.033872         -0.100523
                 -0.528953         -0.263516         -0.294539         -0.169064         -0.302075         -0.042488
                 -0.316630          0.153674         -0.153674          0.065999         -0.131919          0.131919
   8   2          0.037884          0.235409          0.043838         -0.033872          0.068498         -0.100523
                 -0.038413          0.966039          0.038413          0.010534         -0.161440         -0.010534
                 -0.263516         -0.528953         -0.294539         -0.302075         -0.169064         -0.042488
                  0.153674         -0.316630         -0.153674         -0.131919          0.065999          0.131919
   8   3         -0.037884          0.043838          0.235409          0.033872         -0.100523          0.068498
                  0.043838         -0.037884          0.235409         -0.100523          0.033872          0.068498
                 -0.281206         -0.281206         -0.465745          0.034489          0.034489          0.111906
                 -0.153674         -0.153674         -0.316630          0.131919          0.131919          0.065999

 Supercell   6 at (1,0,1)        6.371 A                             
   1   1          0.055948          0.002351          0.017253          0.018929         -0.014830         -0.084823
                 -0.120719         -0.249235          0.011452         -0.652798         -0.707980         -0.666510
                  0.025118          0.014730         -0.082044          0.290420         -0.023876         -0.061728
                  0.053476          0.040165          0.099594          0.091669         -0.000316          0.000316
   1   2          0.002351         -0.309620         -0.004102         -0.014830         -0.081706          0.013389
                 -0.282251         -0.120719          0.006105         -0.659970         -0.652798         -0.665003
                  0.029259         -0.049397         -0.014730          0.038217          0.727704          0.023876
[...]
 + a       7 |    1   1                                                       +
 + b       7 |    1   1                                                       +
 + c       5 |    1  -1                                                       +
 + d       5 |    1  -1                                                       +
 + -------------------------------------------------------------------------- +
 +  q-pt=  779 ( -0.500000 -0.500000  0.150000)     0.0007500000              +
 + -------------------------------------------------------------------------- +
 +  Acoustic sum rule correction <   0.362723 THz applied                     +
 +     N      Frequency irrep.                                                + 
 +                 (THz)                                                      + 
 +                                                                            +
 +     1      -3.331913   a                                                   + 
 +     2      -3.312848   b                                                   + 
 +     3      -0.928152   a                                                   + 
 +     4      -0.401849   c                                                   + 
 +     5       0.671011   b                                                   + 
 +     6       1.040669   c                                                   + 
 +     7       1.268617   d                                                   + 
 +     8       2.083156   b                                                   + 
 +     9       3.004206   a                                                   + 
 +    10       3.171333   c                                                   + 
 +    11       3.222084   b                                                   + 
 +    12       3.917206   d                                                   + 
 +    13       4.191535   c                                                   + 
 +    14       4.479110   b                                                   + 
 +    15       4.590189   b                                                   + 
 +    16       4.599319   a                                                   + 
 +    17       5.254262   c                                                   + 
 +    18       5.450374   a                                                   + 
 +    19       6.000458   d                                                   + 
 +    20       6.123725   a                                                   + 
 +    21       6.181272   b                                                   + 
 +    22       6.362352   d                                                   + 
 +    23       6.516853   a                                                   + 
 +    24       6.716540   d                                                   + 
 + .......................................................................... +
 +        Character table from group theory analysis of eigenvectors          +
 +                           Point Group =  20, D3d                           +
 + .......................................................................... +
 +  Rep  Mul |    E   m                                                       +
 +           | --------                                                       +
 + a       7 |    1   1                                                       +
 + b       7 |    1   1                                                       +
 + c       5 |    1  -1                                                       +
 + d       5 |    1  -1                                                       +
 + -------------------------------------------------------------------------- +
 +  q-pt=  780 ( -0.500000 -0.500000  0.200000)     0.0007500000              +
 + -------------------------------------------------------------------------- +
 +  Acoustic sum rule correction <   0.275029 THz applied                     +
 +     N      Frequency irrep.                                                + 
 +                 (THz)                                                      + 
 +                                                                            +
 +     1      -3.414535   a                                                   + 
 +     2      -3.381370   b                                                   + 
 +     3      -0.150194   c                                                   + 
 +     4       0.655399   a                                                   + 
 +     5       0.930116   d                                                   + 
 +     6       1.496280   b                                                   + 
 +     7       1.808006   c                                                   + 
 +     8       2.616252   b                                                   + 
 +     9       3.193324   a                                                   + 
 +    10       3.214166   c                                                   + 
 +    11       3.380926   b                                                   + 
 +    12       4.069000   d                                                   + 
 +    13       4.281783   b                                                   + 
 +    14       4.373810   c                                                   + 
 +    15       4.526844   b                                                   + 
 +    16       4.535295   a                                                   + 
 +    17       5.210189   c                                                   + 
 +    18       5.391417   a                                                   + 
 +    19       5.849862   d                                                   + 
 +    20       5.917016   a                                                   + 
 +    21       6.024551   b                                                   + 
 +    22       6.247483   d                                                   + 
 +    23       6.392181   a                                                   + 
 +    24       6.632753   d                                                   + 
 + .......................................................................... +
 +        Character table from group theory analysis of eigenvectors          +
 +                           Point Group =  20, D3d                           +
 + .......................................................................... +
 +  Rep  Mul |    E   m                                                       +
 +           | --------                                                       +
 + a       7 |    1   1                                                       +
 + b       7 |    1   1                                                       +
 + c       5 |    1  -1                                                       +
 + d       5 |    1  -1                                                       +
 + -------------------------------------------------------------------------- +
 +  q-pt=  781 ( -0.500000 -0.500000 -0.500000)     0.0001250000              +
 + -------------------------------------------------------------------------- +
 +  Acoustic sum rule correction <   0.093656 THz applied                     +
 +     N      Frequency irrep.                                                + 
 +                 (THz)                                                      + 
 +                                                                            +
 +     1      -1.139303   a                                                   + 
 +     2      -1.139303   a                                                   + 
 +     3      -1.072726   b                                                   + 
 +     4      -1.072726   b                                                   + 
 +     5      -1.072726   b                                                   + 
 +     6      -1.072726   b                                                   + 
 +     7       3.206726   a                                                   + 
 +     8       3.206726   a                                                   + 
 +     9       4.311179   b                                                   + 
 +    10       4.311179   b                                                   + 
 +    11       4.311179   b                                                   + 
 +    12       4.311179   b                                                   + 
 +    13       4.399389   a                                                   + 
 +    14       4.399389   a                                                   + 
 +    15       4.959807   b                                                   + 
 +    16       4.959807   b                                                   + 
 +    17       4.959807   b                                                   + 
 +    18       4.959807   b                                                   + 
 +    19       5.208672   c                                                   + 
 +    20       5.208672   c                                                   + 
 +    21       5.251787   b                                                   + 
 +    22       5.251787   b                                                   + 
 +    23       5.251787   b                                                   + 
 +    24       5.251787   b                                                   + 
 + .......................................................................... +
 +        Character table from group theory analysis of eigenvectors          +
 +                           Point Group =  20, D3d                           +
 + .......................................................................... +
 +  Rep  Mul |    E   I   3  -3   2   m                                       +
 +           | ------------------------                                       +
 + a       3 |    2   0   2   0   0   2                                       +
 + b       4 |    4   0  -2   0   0   0                                       +
 + c       1 |    2   0   2   0   0  -2                                       +
 ==============================================================================

 ******************** Symmetrised Forces ********************
 *                                                          *
 *               Cartesian components (eV/A)                *
 * -------------------------------------------------------- *
 *                         x            y            z      *
 *                                                          *
 * Ti              1      0.00000      0.00000      0.00000 *
 * Ti              2      0.00000      0.00000      0.00000 *
 * Ti              3      0.00000      0.00000      0.00000 *
 * Ti              4      0.00000      0.00000      0.00000 *
 * Ti              5      0.00000      0.00000      0.00000 *
 * Ti              6      0.00000      0.00000      0.00000 *
 * V               1      0.00000      0.00000      0.00000 *
 * V               2      0.00000      0.00000      0.00000 *
 *                                                          *
 ************************************************************

 *********** Symmetrised Stress Tensor ***********
 *                                               *
 *          Cartesian components (GPa)           *
 * --------------------------------------------- *
 *             x             y             z     *
 *                                               *
 *  x      0.093551      0.021661     -0.021661  *
 *  y      0.021661      0.093551     -0.021661  *
 *  z     -0.021661     -0.021661      0.093551  *
 *                                               *
 *  Pressure:   -0.0936                          *
 *                                               *
 *************************************************

 Pseudo atomic calculation performed for Ti 3s2 3p6 3d2 4s2

 Converged in 51 iterations to a total energy of -1587.0236 eV

 Pseudo atomic calculation performed for V 3s2 3p6 3d3 4s2

 Converged in 52 iterations to a total energy of -2065.7874 eV
Charge spilling parameter for spin component 1 = 0.06%

            Orbital Populations       
     Ion    Atom   Orbital             Charge
  -------------------------------------------
     Ti     1      S                    2.005
     Ti     1      Px                   2.007
     Ti     1      Py                   2.007
     Ti     1      Pz                   2.007
     Ti     1      S                    0.267
     Ti     1      Dzz                  0.570
     Ti     1      Dzy                  0.536
     Ti     1      Dzx                  0.539
     Ti     1      Dxx-yy               0.553
     Ti     1      Dxy                  0.532
     Ti     1      Px                   0.316
     Ti     1      Py                   0.326
     Ti     1      Pz                   0.323
     Ti     2      S                    2.005
     Ti     2      Px                   2.007
     Ti     2      Py                   2.007
     Ti     2      Pz                   2.007
     Ti     2      S                    0.267
     Ti     2      Dzz                  0.570
     Ti     2      Dzy                  0.536
     Ti     2      Dzx                  0.539
     Ti     2      Dxx-yy               0.553
     Ti     2      Dxy                  0.532
     Ti     2      Px                   0.316
     Ti     2      Py                   0.326
     Ti     2      Pz                   0.323
     Ti     3      S                    2.005
     Ti     3      Px                   2.008
     Ti     3      Py                   2.007
     Ti     3      Pz                   2.007
     Ti     3      S                    0.268
     Ti     3      Dzz                  0.573
     Ti     3      Dzy                  0.530
     Ti     3      Dzx                  0.553
     Ti     3      Dxx-yy               0.561
     Ti     3      Dxy                  0.534
     Ti     3      Px                   0.313
     Ti     3      Py                   0.329
     Ti     3      Pz                   0.322
     Ti     4      S                    2.005
     Ti     4      Px                   2.008
     Ti     4      Py                   2.007
     Ti     4      Pz                   2.007
     Ti     4      S                    0.268
     Ti     4      Dzz                  0.573
     Ti     4      Dzy                  0.530
     Ti     4      Dzx                  0.553
     Ti     4      Dxx-yy               0.561
     Ti     4      Dxy                  0.534
     Ti     4      Px                   0.313
     Ti     4      Py                   0.329
     Ti     4      Pz                   0.322
     Ti     5      S                    2.005
     Ti     5      Px                   2.008
     Ti     5      Py                   2.007
     Ti     5      Pz                   2.007
     Ti     5      S                    0.267
     Ti     5      Dzz                  0.575
     Ti     5      Dzy                  0.532
     Ti     5      Dzx                  0.544
     Ti     5      Dxx-yy               0.557
     Ti     5      Dxy                  0.551
     Ti     5      Px                   0.312
     Ti     5      Py                   0.325
     Ti     5      Pz                   0.326
     Ti     6      S                    2.005
     Ti     6      Px                   2.008
     Ti     6      Py                   2.007
     Ti     6      Pz                   2.007
     Ti     6      S                    0.267
     Ti     6      Dzz                  0.575
     Ti     6      Dzy                  0.532
     Ti     6      Dzx                  0.544
     Ti     6      Dxx-yy               0.557
     Ti     6      Dxy                  0.551
     Ti     6      Px                   0.312
     Ti     6      Py                   0.325
     Ti     6      Pz                   0.326
      V     1      S                    2.001
      V     1      Px                   2.003
      V     1      Py                   2.003
      V     1      Pz                   2.003
      V     1      Dzz                  0.695
      V     1      Dzy                  0.792
      V     1      Dzx                  0.794
      V     1      Dxx-yy               0.675
      V     1      Dxy                  0.784
      V     1      S                    0.318
      V     1      Px                   0.299
      V     1      Py                   0.312
      V     1      Pz                   0.310
      V     2      S                    2.001
      V     2      Px                   2.003
      V     2      Py                   2.003
      V     2      Pz                   2.003
      V     2      Dzz                  0.695
      V     2      Dzy                  0.792
      V     2      Dzx                  0.794
      V     2      Dxx-yy               0.675
      V     2      Dxy                  0.784
      V     2      S                    0.318
      V     2      Px                   0.299
      V     2      Py                   0.312
      V     2      Pz                   0.310
  -------------------------------------------
                           Total:      98.000
  -------------------------------------------

     Atomic Populations (Mulliken)
     -----------------------------
Species          Ion     s       p       d       f      Total   Charge (e)
==========================================================================
  Ti              1     2.272   6.985   2.747   0.000  12.004    -0.004
  Ti              2     2.272   6.985   2.747   0.000  12.004    -0.004
  Ti              3     2.272   6.985   2.747   0.000  12.004    -0.004
  Ti              4     2.272   6.985   2.747   0.000  12.004    -0.004
  Ti              5     2.272   6.985   2.747   0.000  12.004    -0.004
  Ti              6     2.272   6.985   2.747   0.000  12.004    -0.004
  V               1     2.319   6.930   3.740   0.000  12.989     0.011
  V               2     2.319   6.930   3.740   0.000  12.989     0.011
==========================================================================

                 Bond                   Population      Length (A)
======================================================================
               V 1 -- V 2                    0.48        2.75882
              Ti 6 -- V 1                    0.32        2.75882
              Ti 5 -- V 2                    0.32        2.75882
              Ti 5 -- Ti 6                   0.13        2.75882
              Ti 4 -- V 2                    0.32        2.75882
              Ti 4 -- Ti 6                   0.12        2.75882
              Ti 3 -- V 1                    0.32        2.75882
              Ti 3 -- Ti 5                   0.12        2.75882
              Ti 3 -- Ti 4                   0.13        2.75882
              Ti 2 -- V 2                    0.32        2.75882
              Ti 2 -- Ti 6                   0.12        2.75882
              Ti 2 -- Ti 3                   0.12        2.75882
              Ti 1 -- V 1                    0.32        2.75882
              Ti 1 -- Ti 5                   0.12        2.75882
              Ti 1 -- Ti 4                   0.12        2.75882
              Ti 1 -- Ti 2                   0.13        2.75882
======================================================================


Writing analysis data to ti64_bcc_phonon_VV.castep_bin

Writing model to ti64_bcc_phonon_VV.check
 
 A BibTeX formatted list of references used in this run has been written to 
 ti64_bcc_phonon_VV.bib
 
Initialisation time =     18.90 s
Calculation time    =      3.85 s
Finalisation time   =      5.35 s
Total time          =     28.10 s
Peak Memory Use     = 1599708 kB
 
Overall parallel efficiency rating: Terrible (32%)
 
Data was distributed by:-
k-point (48-way); efficiency rating: Terrible (33%)
 
Parallel notes:
1) Calculation only took 22.8 s, so efficiency estimates may be inaccurate.
