 +-------------------------------------------------+
 |                                                 |
 |      CCC   AA    SSS  TTTTT  EEEEE  PPPP        |
 |     C     A  A  S       T    E      P   P       |
 |     C     AAAA   SS     T    EEE    PPPP        |
 |     C     A  A     S    T    E      P           |
 |      CCC  A  A  SSS     T    EEEEE  P           |
 |                                                 |
 +-------------------------------------------------+
 |                                                 |
 | Welcome to Academic Release CASTEP version 24.1 |
 | Ab Initio Total Energy Program                  |
 |                                                 |
 | Authors:                                        |
 | M. Segall, M. Probert, C. Pickard, P. Hasnip,   |
 | S. Clark, K. Refson, J. R. Yates,               |
 | A. Bartok-Partay, M. Payne                      |
 |                                                 |
 | Contributors:                                   |
 | P. Lindan, P. Haynes, J. White, V. Milman,      |
 | N. Govind, M. Gibson, P. Tulip, V. Cocula,      |
 | B. Montanari, D. Quigley, M. Glover,            |
 | L. Bernasconi, A. Perlov, M. Plummer,           |
 | E. McNellis, J. Meyer, J. Gale, D. Jochym       |
 | J. Aarons, B. Walker, R. Gillen, D. Jones       |
 | T. Green, I. J. Bush, C. J. Armstrong,          |
 | E. J. Higgins, E. L. Brown, M. S. McFly,        |
 | J. Wilkins, B-C. Shih, P. J. P. Byrne,          |
 | R. J. Maurer, J. C. Womack, J. Dziedzic,        |
 | L. LeBlanc, T. K. Stenczel, J. Kermode,         |
 | S. Sturniolo, B. Shi, B. Durham, M. Evans,      |
 | M. J. Smith, A. Tamerus, Z. Hawkhead,           |
 | V. Ravindran, T. Hollins, S. A. Joyce,          |
 | R. T. Strong, A. M. Reilly                      |
 |                                                 |
 | Copyright (c) 2000 - 2023                       |
 |                                                 |
 |     Distributed under license from Cambridge    |
 |     Enterprise for academic use only.           |
 |                                                 |
 | Please cite                                     |
 |                                                 |
 |     "First principles methods using CASTEP"     |
 |                                                 |
 |         Zeitschrift fuer Kristallographie       |
 |           220(5-6) pp. 567-570 (2005)           |
 |                                                 |
 | S. J. Clark, M. D. Segall, C. J. Pickard,       |
 | P. J. Hasnip, M. J. Probert, K. Refson,         |
 | M. C. Payne                                     |
 |                                                 |
 |       in all publications arising from          |
 |              your use of CASTEP                 |
 |                                                 |
 +-------------------------------------------------+
 |                                                 |
 |              http://www.castep.org              |
 |                                                 |
 +-------------------------------------------------+



 Compiled for linux_x86_64_gfortran10 on Tue, 02 May 2023 15:31:46 +0100
 from code version db08e394c+  default  Mon May 1 16:40:39 2023 +0100
 Compiler: GNU Fortran 10.2.0; Optimisation: fast
 Comms   : Open MPI v4.0.5
 MATHLIBS: openblas (LAPACK version 3.9.0)
 FFT Lib : fftw3 version fftw-3.3.8-sse2-avx-avx2-avx2_128
 Fundamental constants values: CODATA 2018

 Run started: Mon, 13 May 2024 15:11:02 +0100
 +-------------------------------------------------+
 |                                                 |
 |  D D D D    F F F F F  P P P P     T T T T T    |
 |  D       D  F          P       P       T        |
 |  D       D  F F F F    P P P P         T        |
 |  D       D  F          P               T        |
 |  D D D D    F          P               T        |
 |                                                 |
 +-------------------------------------------------+
 |                                                 |
 | Welcome to Castep Linear Response (DFPT)        |
 |                                                 |
 | Copyright (c) 2006 - 2023                       |
 |                                                 |
 | Please cite the following publications in all   |
 | work arising from your use of CASTEP LR.        |
 |                                                 |
 | K. Refson, S. J. Clark and P. R. Tulip          |
 | Variational density functional perturbation     |
 | theory for dielectrics and lattice dynamics     |
 | Phys. Rev. B 73(15), 155114 (2006)              |
 +-------------------------------------------------+


 Atomic calculation performed for Ti: 1s2 2s2 2p6 3s2 3p6 3d2 4s2

 Converged in 79 iterations to an ae energy of -23226.658 eV

   ============================================================                
   | Pseudopotential Report - Date of generation 13-05-2024   |                
   ------------------------------------------------------------                
   | Element: Ti Ionic charge: 12.00 Level of theory: PBE     |                
   | Atomic Solver: Koelling-Harmon                           |                
   |                                                          |                
   |               Reference Electronic Structure             |                
   |         Orbital         Occupation         Energy        |                
   |            3s              2.000           -2.302        |                
   |            3p              6.000           -1.428        |                
   |            4s              2.000           -0.164        |                
   |            3d              2.000           -0.157        |                
   |                                                          |                
   |                 Pseudopotential Definition               |                
   |        Beta     l      e      Rc     scheme   norm       |                
   |          1      0   -2.302   1.793     qc      0         |                
   |          2      0   -0.164   1.793     qc      0         |                
   |          3      0    0.250   1.793     qc      0         |                
   |          4      1   -1.428   1.793     qc      0         |                
   |          5      1    0.250   1.793     qc      0         |                
   |          6      2   -0.157   1.793     qc      0         |                
   |          7      2    0.250   1.793     qc      0         |                
   |         loc     3    0.000   1.793     pn      0         |                
   |                                                          |                
   | Augmentation charge Rinner = 1.263                       |                
   | Partial core correction Rc = 1.263                       |                
   ------------------------------------------------------------                
   | "3|1.8|9|10|11|30U:40:31:32(qc=5.5)"                     |                
   ------------------------------------------------------------                
   |      Author: Chris J. Pickard, Cambridge University      |                
   ============================================================                

 Atomic calculation performed for V: 1s2 2s2 2p6 3s2 3p6 3d3 4s2

 Converged in 81 iterations to an ae energy of -25823.733 eV

   ============================================================                
   | Pseudopotential Report - Date of generation 13-05-2024   |                
   ------------------------------------------------------------                
   | Element: V Ionic charge: 13.00 Level of theory: PBE      |                
   | Atomic Solver: Koelling-Harmon                           |                
   |                                                          |                
   |               Reference Electronic Structure             |                
   |         Orbital         Occupation         Energy        |                
   |            3s              2.000           -2.581        |                
   |            3p              6.000           -1.618        |                
   |            3d              3.000           -0.190        |                
   |            4s              2.000           -0.173        |                
   |                                                          |                
   |                 Pseudopotential Definition               |                
   |        Beta     l      e      Rc     scheme   norm       |                
   |          1      0   -2.581   1.803     qc      0         |                
   |          2      0   -0.173   1.803     qc      0         |                
   |          3      0    0.250   1.803     qc      0         |                
   |          4      1   -1.618   1.803     qc      0         |                
   |          5      1    0.250   1.803     qc      0         |                
   |          6      2   -0.190   1.803     qc      0         |                
   |          7      2    0.250   1.803     qc      0         |                
   |         loc     3    0.000   1.803     pn      0         |                
   |                                                          |                
   | Augmentation charge Rinner = 0.600                       |                
   | Partial core correction Rc = 0.600                       |                
   ------------------------------------------------------------                
   | "3|1.8|1.8|0.6|12|14|16|30U:40:31:32(qc=7)"              |                
   ------------------------------------------------------------                
   |      Author: Chris J. Pickard, Cambridge University      |                
   ============================================================                

 Pseudo atomic calculation performed for Ti 3s2 3p6 3d2 4s2

 Converged in 51 iterations to a total energy of -1587.0236 eV

 Pseudo atomic calculation performed for V 3s2 3p6 3d3 4s2

 Converged in 52 iterations to a total energy of -2065.7874 eV
 Calculation parallelised over 192 processes.
 Data is distributed by G-vector(6-way) and k-point(32-way)

 ************************************ Title ************************************
 

 ***************************** General Parameters ******************************
  
 output verbosity                               : normal  (1)
 write checkpoint data to                       : ti64_hcp_phonon_VV.check
 type of calculation                            : phonon calculation
 stress calculation                             : on
 density difference calculation                 : off
 electron localisation func (ELF) calculation   : off
 Hirshfeld analysis                             : off
 polarisation (Berry phase) analysis            : off
 molecular orbital projected DOS                : off
 deltaSCF calculation                           : off
 unlimited duration calculation
 timing information                             : on
 memory usage estimate                          : on
 write extra output files                       : on
 write final potential to formatted file        : off
 write final density to formatted file          : off
 write structure in CELL formatted file         : on
 write BibTeX reference list                    : on
 write OTFG pseudopotential files               : on
 write electrostatic potential file             : on
 write bands file                               : on
 checkpoint writing                             : both castep_bin and check files
  
 output         length unit                     : A
 output           mass unit                     : amu
 output           time unit                     : ps
 output         charge unit                     : e
 output           spin unit                     : hbar/2
 output         energy unit                     : eV
 output          force unit                     : eV/A
 output       velocity unit                     : A/ps
 output       pressure unit                     : GPa
 output     inv_length unit                     : 1/A
 output      frequency unit                     : THz
 output force constant unit                     : eV/A**2
 output         volume unit                     : A**3
 output   IR intensity unit                     : (D/A)**2/amu
 output         dipole unit                     : D
 output         efield unit                     : eV/A/e
 output        entropy unit                     : J/mol/K
 output    efield chi2 unit                     : pm/V
  
 wavefunctions paging                           : none
 random number generator seed                   :  151102162
 data distribution                              : k-point only
 optimization strategy                          : maximize speed(+++)

 *********************** Exchange-Correlation Parameters ***********************
  
 using functional                               : Perdew Burke Ernzerhof
 relativistic treatment                         : Koelling-Harmon
 DFT+D: Semi-empirical dispersion correction    : off

 ************************* Pseudopotential Parameters **************************
  
 pseudopotential representation                 : reciprocal space
 <beta|phi> representation                      : reciprocal space
 spin-orbit coupling                            : off

 **************************** Basis Set Parameters *****************************
  
 plane wave basis set cut-off                   :   800.0000   eV
 size of standard grid                          :     2.0000
 size of   fine   grid                          :     4.0000
 size of   fine   gmax                          :    57.9620   1/A
 largest prime factor in FFT                    :          5
 finite basis set correction                    : automatic
 number of sample energies                      :          3
           sample  spacing                      :     5.0000   eV

 **************************** Electronic Parameters ****************************
  
 number of  electrons                           :  98.00    
 net charge of system                           :  0.000    
 treating system as non-spin-polarized
 number of bands                                :         84

 ********************* Electronic Minimization Parameters **********************
  
 Method: Treating system as metallic with density mixing treatment of electrons,
         and number of  SD  steps               :          1
         and number of  CG  steps               :          4
  
 total energy / atom convergence tol.           : 0.1000E-08   eV
 eigen-energy convergence tolerance             : 0.9524E-10   eV
 max force / atom convergence tol.              : ignored
 convergence tolerance window                   :          3   cycles
 max. number of SCF cycles                      :        400
 number of fixed-spin iterations                :         10
 smearing scheme                                : Gaussian
 smearing width                                 : 0.5000E-01   eV
 Fermi energy convergence tolerance             : 0.2721E-13   eV
 periodic dipole correction                     : NONE

 ************************** Density Mixing Parameters **************************
  
 density-mixing scheme                          : Pulay
 max. length of mixing history                  :         20
 charge density mixing amplitude                : 0.8000    
 cut-off energy for mixing                      :  800.0       eV
 charge density mixing g-vector                 :  1.500       1/A

 *********************** Population Analysis Parameters ************************
  
 Population analysis with cutoff                :  3.000       A
 Population analysis output                     : summary and pdos components

 ****************************** Phonon Parameters ******************************
  
 phonon calculation method                      : finite displacement
 finite displacement amplitude                  : 0.1000E-01   A
 fine phonon calculation method                 : interpolation
 non-periodic force constant method             : Weighted cumulant sum
 force constant cutoff scale factor             :     1.0000
 LO/TO splitting term                           : included
 acoustic phonon sum rule                       : correct D(q) in recip-space
 Born effective charges                         : calculated
 Born charge sum rule                           : explicitly enforced
 Raman intensities                              : not calculated
 phonon extra output                            : real-space force constants
 phonon k-points                                : use reduced set
 phonon DOS                                     : not calculated
 no timed backups
 band convergence tolerance                     : 0.1000E-08   eV

 ******************************* Developer Code ********************************
  
 PARALLEL: kpoints=32 : ENDPARALLEL
 no_improve_wvfn

 *******************************************************************************
  

                           -------------------------------
                                      Unit Cell
                           -------------------------------
        Real Lattice(A)                      Reciprocal Lattice(1/A)
     2.8717715    -4.9740541     0.0000000        1.093956345  -0.631595990   0.000000000
     2.8717715     4.9740541     0.0000000        1.093956345   0.631595990   0.000000000
     0.0000000     0.0000000     4.6019090        0.000000000   0.000000000   1.365343232

                       Lattice parameters(A)       Cell Angles
                    a =      5.743543          alpha =   90.000000
                    b =      5.743543          beta  =   90.000000
                    c =      4.601909          gamma =  120.000000

                       Current cell volume =           131.470529       A**3
                                   density =             2.959485   AMU/A**3
                                           =             4.914340     g/cm^3

                           -------------------------------
                                     Cell Contents
                           -------------------------------
                         Total number of ions in cell =    8
                      Total number of species in cell =    2
                        Max number of any one species =    6

            xxxxxxxxxxxxxxxxxxxxxxxxxxxxxxxxxxxxxxxxxxxxxxxxxxxxxxxxxxxx
            x  Element    Atom        Fractional coordinates of atoms  x
            x            Number           u          v          w      x
            x----------------------------------------------------------x
            x  Ti           1         0.171942   0.840408   0.250000   x 
            x  Ti           2         0.328058   0.659592   0.750000   x 
            x  Ti           3         0.659592   0.328058   0.250000   x 
            x  Ti           4         0.840408   0.171942   0.750000   x 
            x  Ti           5         0.669132   0.830868   0.250000   x 
            x  Ti           6         0.830868   0.669132   0.750000   x 
            x  V            1         0.177073   0.322927   0.250000   x 
            x  V            2         0.322927   0.177073   0.750000   x 
            xxxxxxxxxxxxxxxxxxxxxxxxxxxxxxxxxxxxxxxxxxxxxxxxxxxxxxxxxxxx


                         No user defined ionic velocities

                           -------------------------------
                                   Details of Species
                           -------------------------------

                               Mass of species in AMU
                                    Ti   47.8670000
                                    V   50.9415000

                          Electric Quadrupole Moment (Barn)
                                    Ti    0.3020000 Isotope 47
                                    V   -0.0520000 Isotope 51

                          Files used for pseudopotentials:
                                    Ti 3|1.8|9|10|11|30U:40:31:32(qc=5.5)
                                    V 3|1.8|1.8|0.6|12|14|16|30U:40:31:32(qc=7)

                           -------------------------------
                              k-Points For BZ Sampling
                           -------------------------------
                       MP grid size for SCF calculation is 11 11 11
                            with an offset of   0.000  0.000  0.000
                       Number of kpoints used =           216

                           -------------------------------
                               Symmetry and Constraints
                           -------------------------------

                      Maximum deviation from symmetry = 0.127532E-14     ANG

                      Number of symmetry operations   =           8
                      Number of ionic constraints     =           3
                      Point group of crystal =     8: D2h, mmm, 2/m 2/m 2/m
                      Space group of crystal =    63: Cmcm, -C 2c 2

             Set iprint > 1 for details on symmetry rotations/translations

                         Centre of mass is constrained
             Set iprint > 1 for details of linear ionic constraints

                         Number of cell constraints= 3
                         Cell constraints are:  1 1 3 0 0 6

                         External pressure/stress (GPa)
                          0.00000   0.00000   0.00000
                                    0.00000   0.00000
                                              0.00000
 
+---------------- MEMORY AND SCRATCH DISK ESTIMATES PER PROCESS --------------+
|                                                     Memory          Disk    |
| Baseline code, static data and system overhead      591.0 MB         0.0 MB |
| BLAS internal memory storage                          0.0 MB         0.0 MB |
| Model and support data                              738.5 MB         0.0 MB |
| Electronic energy minimisation requirements          51.5 MB         0.0 MB |
| Force calculation requirements                       26.9 MB         0.0 MB |
| Stress calculation requirements                      29.6 MB         0.0 MB |
|                                               ----------------------------- |
| Approx. total storage required per process         1381.1 MB         0.0 MB |
|                                                                             |
| Requirements will fluctuate during execution and may exceed these estimates |
+-----------------------------------------------------------------------------+
Calculating finite basis set correction with  3 cut-off energies.
Calculating total energy with cut-off of  790.000 eV.
------------------------------------------------------------------------ <-- SCF
SCF loop      Energy           Fermi           Energy gain       Timer   <-- SCF
                               energy          per atom          (sec)   <-- SCF
------------------------------------------------------------------------ <-- SCF
Initial  -1.25496133E+004  0.00000000E+000                        18.13  <-- SCF
      1  -1.33461673E+004  1.16089514E+001   9.95692482E+001      22.07  <-- SCF
      2  -1.36931819E+004  1.00809296E+001   4.33768322E+001      24.88  <-- SCF
      3  -1.37122483E+004  9.73199786E+000   2.38329202E+000      27.81  <-- SCF
      4  -1.37122801E+004  8.84037139E+000   3.97327846E-003      32.75  <-- SCF
      5  -1.37149100E+004  8.77401428E+000   3.28738769E-001      37.74  <-- SCF
      6  -1.37109886E+004  9.22779596E+000  -4.90167255E-001      42.74  <-- SCF
      7  -1.37108483E+004  9.23659544E+000  -1.75376557E-002      47.87  <-- SCF
      8  -1.37108360E+004  9.18691483E+000  -1.53722618E-003      52.71  <-- SCF
      9  -1.37108358E+004  9.18503319E+000  -2.60511681E-005      58.23  <-- SCF
     10  -1.37108358E+004  9.18490263E+000  -6.98181535E-009      63.42  <-- SCF
     11  -1.37108358E+004  9.18473144E+000  -1.91152089E-008      68.73  <-- SCF
     12  -1.37108358E+004  9.18477653E+000   3.89597284E-010      73.60  <-- SCF
     13  -1.37108358E+004  9.18478964E+000  -4.79330336E-009      77.83  <-- SCF
     14  -1.37108358E+004  9.18478212E+000  -3.82830086E-010      81.68  <-- SCF
     15  -1.37108358E+004  9.18477926E+000   2.86155822E-011      85.51  <-- SCF
------------------------------------------------------------------------ <-- SCF
 
Final energy, E             =  -13710.81923424     eV
Final free energy (E-TS)    =  -13710.83582828     eV
(energies not corrected for finite basis set)
 
NB est. 0K energy (E-0.5TS)      =  -13710.82753126     eV
 
Calculating total energy with cut-off of  795.000 eV.
------------------------------------------------------------------------ <-- SCF
SCF loop      Energy           Fermi           Energy gain       Timer   <-- SCF
                               energy          per atom          (sec)   <-- SCF
------------------------------------------------------------------------ <-- SCF
Initial  -1.37108192E+004  0.00000000E+000                        90.32  <-- SCF
      1  -1.37108360E+004  9.18477643E+000   2.09020723E-003      93.30  <-- SCF
      2  -1.37108360E+004  9.18477643E+000   2.48008157E-009      97.82  <-- SCF
      3  -1.37108360E+004  9.18476021E+000   1.11811520E-008     102.09  <-- SCF
      4  -1.37108360E+004  9.18512740E+000   2.12331757E-006     106.91  <-- SCF
      5  -1.37108361E+004  9.18373461E+000   1.53450997E-005     111.70  <-- SCF
      6  -1.37108360E+004  9.18479317E+000  -1.77722276E-005     116.43  <-- SCF
      7  -1.37108360E+004  9.18477791E+000   7.71760511E-007     121.46  <-- SCF
      8  -1.37108360E+004  9.18473552E+000  -4.76815065E-007     126.24  <-- SCF
      9  -1.37108360E+004  9.18480392E+000   1.35633992E-009     130.89  <-- SCF
     10  -1.37108360E+004  9.18477641E+000  -4.09318834E-010     134.69  <-- SCF
     11  -1.37108360E+004  9.18477584E+000   2.01082469E-011     138.46  <-- SCF
------------------------------------------------------------------------ <-- SCF
 
Final energy, E             =  -13710.81936187     eV
Final free energy (E-TS)    =  -13710.83595595     eV
(energies not corrected for finite basis set)
 
NB est. 0K energy (E-0.5TS)      =  -13710.82765891     eV
 
Calculating total energy with cut-off of  800.000 eV.
------------------------------------------------------------------------ <-- SCF
SCF loop      Energy           Fermi           Energy gain       Timer   <-- SCF
                               energy          per atom          (sec)   <-- SCF
------------------------------------------------------------------------ <-- SCF
Initial  -1.37108194E+004  0.00000000E+000                       143.26  <-- SCF
      1  -1.37108361E+004  9.18477567E+000   2.08932199E-003     146.19  <-- SCF
      2  -1.37108361E+004  9.18477567E+000   2.18000465E-009     150.57  <-- SCF
      3  -1.37108361E+004  9.18472739E+000   4.77599867E-008     155.48  <-- SCF
      4  -1.37108362E+004  9.18560936E+000   1.17662790E-005     160.21  <-- SCF
      5  -1.37108361E+004  9.18428635E+000  -8.15626110E-006     164.90  <-- SCF
      6  -1.37108361E+004  9.18480881E+000  -3.59880389E-006     169.56  <-- SCF
      7  -1.37108361E+004  9.18476983E+000   1.52091239E-007     174.32  <-- SCF
      8  -1.37108361E+004  9.18473126E+000  -2.08338453E-007     179.00  <-- SCF
      9  -1.37108361E+004  9.18480053E+000   2.47099419E-010     183.56  <-- SCF
     10  -1.37108361E+004  9.18477347E+000  -4.04291772E-010     187.28  <-- SCF
------------------------------------------------------------------------ <-- SCF
 
Final energy, E             =  -13710.81948248     eV
Final free energy (E-TS)    =  -13710.83607648     eV
(energies not corrected for finite basis set)
 
NB est. 0K energy (E-0.5TS)      =  -13710.82777948     eV
 
 For future reference: finite basis dEtot/dlog(Ecut) =      -0.019691eV
 Total energy corrected for finite basis set =  -13710.836075 eV
 ??????????????????????????????????????????????????????????????????????????????? 
     WARNING: Calculation of Born effective charges and IR intensities is not    
              implemented for ultrasoft pseudopotentials.                        
              Parameter CALCULATE_BORN_CHARGES changed to .FALSE.                
 ??????????????????????????????????????????????????????????????????????????????? 
 ??????????????????????????????????????????????????????????????????????????????? 
     WARNING: Calculation of LO/TO splitting is not implemented for ultrasoft    
              pseudopotentials.                                                  
              Parameter PHONON_CALC_LO_TO_SPLITTING changed to .FALSE.           
 ??????????????????????????????????????????????????????????????????????????????? 

 Phonon supercell    1 (of 5)      [  1  0  0;  0  1  0;  0  0  2]:     192.19s
 -------------------------------------------------------------------------------
  Parallel strategy changed for perturbation using 108 k-points
  Data is distributed by G-vector(6-way) and k-point(32-way) and band(1-way)
  +---------------- MEMORY AND SCRATCH DISK ESTIMATES PER PROCESS --------------+
  |                                                     Memory          Disk    |
  | Baseline code, static data and system overhead      591.0 MB         0.0 MB |
  | BLAS internal memory storage                          0.0 MB         0.0 MB |
  | Model and support data                              738.5 MB         0.0 MB |
  | Finite displacement phonon requirements             145.6 MB         0.0 MB |
  |                                               ----------------------------- |
  | Approx. total storage required per process         1475.2 MB         0.0 MB |
  |                                                                             |
  | Requirements will fluctuate during execution and may exceed these estimates |
  +-----------------------------------------------------------------------------+
 Perturbation    1 (of    9): Ti    1 X at q=( 0.000, 0.000, 0.000):    420.78s
  Parallel strategy changed for perturbation using 183 k-points
  Data is distributed by G-vector(6-way) and k-point(32-way) and band(1-way)
  +---------------- MEMORY AND SCRATCH DISK ESTIMATES PER PROCESS --------------+
  |                                                     Memory          Disk    |
  | Baseline code, static data and system overhead      591.0 MB         0.0 MB |
  | BLAS internal memory storage                          0.0 MB         0.0 MB |
  | Model and support data                              738.5 MB         0.0 MB |
  | Finite displacement phonon requirements             181.5 MB         0.0 MB |
  |                                               ----------------------------- |
  | Approx. total storage required per process         1511.0 MB         0.0 MB |
  |                                                                             |
  | Requirements will fluctuate during execution and may exceed these estimates |
  +-----------------------------------------------------------------------------+
 Perturbation    2 (of    9): Ti    1 Y at q=( 0.000, 0.000, 0.000):    943.79s
 Perturbation    3 (of    9): Ti    1 Z at q=( 0.000, 0.000, 0.000):   1467.37s
  Parallel strategy changed for perturbation using 363 k-points
  Data is distributed by G-vector(6-way) and k-point(32-way) and band(1-way)
  +---------------- MEMORY AND SCRATCH DISK ESTIMATES PER PROCESS --------------+
  |                                                     Memory          Disk    |
  | Baseline code, static data and system overhead      591.0 MB         0.0 MB |
  | BLAS internal memory storage                          0.0 MB         0.0 MB |
  | Model and support data                              738.5 MB         0.0 MB |
  | Finite displacement phonon requirements             264.5 MB         0.0 MB |
  |                                               ----------------------------- |
  | Approx. total storage required per process         1594.1 MB         0.0 MB |
  |                                                                             |
  | Requirements will fluctuate during execution and may exceed these estimates |
  +-----------------------------------------------------------------------------+
 Perturbation    4 (of    9): Ti    5 X at q=( 0.000, 0.000, 0.000):   2352.62s
  Parallel strategy changed for perturbation using 183 k-points
  Data is distributed by G-vector(6-way) and k-point(32-way) and band(1-way)
 Perturbation    5 (of    9): Ti    5 Y at q=( 0.000, 0.000, 0.000):   2872.57s
  Parallel strategy changed for perturbation using 108 k-points
  Data is distributed by G-vector(16-way) and k-point(12-way) and band(1-way)
 Perturbation    6 (of    9): Ti    5 Z at q=( 0.000, 0.000, 0.000):   3177.85s
  Parallel strategy changed for perturbation using 198 k-points
  Data is distributed by G-vector(6-way) and k-point(32-way) and band(1-way)
 Perturbation    7 (of    9): V     1 X at q=( 0.000, 0.000, 0.000):   3836.23s
  Parallel strategy changed for perturbation using 183 k-points
  Data is distributed by G-vector(6-way) and k-point(32-way) and band(1-way)
 Perturbation    8 (of    9): V     1 Y at q=( 0.000, 0.000, 0.000):   4362.87s
  Parallel strategy changed for perturbation using 108 k-points
  Data is distributed by G-vector(16-way) and k-point(12-way) and band(1-way)
 Perturbation    9 (of    9): V     1 Z at q=( 0.000, 0.000, 0.000):   4651.67s
  Parallel strategy changed for perturbation using 198 k-points
  Data is distributed by G-vector(6-way) and k-point(32-way) and band(1-way)

 Phonon supercell    2 (of 5)      [ -1  0  0;  0  1  1;  0  1 -1]:    5337.56s
 -------------------------------------------------------------------------------
  Parallel strategy changed for perturbation using 200 k-points
  Data is distributed by G-vector(6-way) and k-point(32-way) and band(1-way)

Writing analysis data to ti64_hcp_phonon_VV.castep_bin

Writing model to ti64_hcp_phonon_VV.check
 Perturbation    1 (of   12): Ti    1 X at q=( 0.000, 0.000, 0.000):   5706.80s
  Parallel strategy changed for perturbation using 200 k-points
  Data is distributed by G-vector(24-way) and k-point(8-way) and band(1-way)
 Perturbation    2 (of   12): Ti    1 Y at q=( 0.000, 0.000, 0.000):   6171.51s
 Perturbation    3 (of   12): Ti    1 Z at q=( 0.000, 0.000, 0.000):   6636.68s
  Parallel strategy changed for perturbation using 352 k-points
  Data is distributed by G-vector(6-way) and k-point(32-way) and band(1-way)
 Perturbation    4 (of   12): Ti    3 X at q=( 0.000, 0.000, 0.000):   7517.90s
  Parallel strategy changed for perturbation using 200 k-points
  Data is distributed by G-vector(24-way) and k-point(8-way) and band(1-way)
 Perturbation    5 (of   12): Ti    3 Y at q=( 0.000, 0.000, 0.000):   8000.22s
 Perturbation    6 (of   12): Ti    3 Z at q=( 0.000, 0.000, 0.000):   8467.73s
  Parallel strategy changed for perturbation using 352 k-points
  Data is distributed by G-vector(6-way) and k-point(32-way) and band(1-way)
 Perturbation    7 (of   12): Ti    5 X at q=( 0.000, 0.000, 0.000):   9343.27s
  Parallel strategy changed for perturbation using 200 k-points
  Data is distributed by G-vector(24-way) and k-point(8-way) and band(1-way)
 Perturbation    8 (of   12): Ti    5 Y at q=( 0.000, 0.000, 0.000):   9821.58s
 Perturbation    9 (of   12): Ti    5 Z at q=( 0.000, 0.000, 0.000):  10253.30s
  Parallel strategy changed for perturbation using 352 k-points
  Data is distributed by G-vector(6-way) and k-point(32-way) and band(1-way)
 Perturbation   10 (of   12): V     1 X at q=( 0.000, 0.000, 0.000):  11129.40s
  Parallel strategy changed for perturbation using 200 k-points
  Data is distributed by G-vector(24-way) and k-point(8-way) and band(1-way)
 Perturbation   11 (of   12): V     1 Y at q=( 0.000, 0.000, 0.000):  11611.70s
 Perturbation   12 (of   12): V     1 Z at q=( 0.000, 0.000, 0.000):  12082.08s
  Parallel strategy changed for perturbation using 352 k-points
  Data is distributed by G-vector(6-way) and k-point(32-way) and band(1-way)

 Phonon supercell    3 (of 5)      [  0  0 -1;  0 -1  0; -2 -1  0]:   12904.78s
 -------------------------------------------------------------------------------
  Parallel strategy changed for perturbation using 162 k-points
  Data is distributed by G-vector(6-way) and k-point(32-way) and band(1-way)

Writing analysis data to ti64_hcp_phonon_VV.castep_bin

Writing model to ti64_hcp_phonon_VV.check
 Perturbation    1 (of   12): Ti    1 X at q=( 0.000, 0.000, 0.000):  13196.70s
  Parallel strategy changed for perturbation using 162 k-points
  Data is distributed by G-vector(32-way) and k-point(6-way) and band(1-way)
 Perturbation    2 (of   12): Ti    1 Y at q=( 0.000, 0.000, 0.000):  13669.58s
 Perturbation    3 (of   12): Ti    1 Z at q=( 0.000, 0.000, 0.000):  14104.09s
  Parallel strategy changed for perturbation using 297 k-points
  Data is distributed by G-vector(6-way) and k-point(32-way) and band(1-way)
 Perturbation    4 (of   12): Ti    3 X at q=( 0.000, 0.000, 0.000):  14760.40s
  Parallel strategy changed for perturbation using 162 k-points
  Data is distributed by G-vector(32-way) and k-point(6-way) and band(1-way)
 Perturbation    5 (of   12): Ti    3 Y at q=( 0.000, 0.000, 0.000):  15235.06s
 Perturbation    6 (of   12): Ti    3 Z at q=( 0.000, 0.000, 0.000):  15706.98s
  Parallel strategy changed for perturbation using 297 k-points
  Data is distributed by G-vector(6-way) and k-point(32-way) and band(1-way)
 Perturbation    7 (of   12): Ti    5 X at q=( 0.000, 0.000, 0.000):  16404.75s
  Parallel strategy changed for perturbation using 162 k-points
  Data is distributed by G-vector(32-way) and k-point(6-way) and band(1-way)
 Perturbation    8 (of   12): Ti    5 Y at q=( 0.000, 0.000, 0.000):  16864.72s
 Perturbation    9 (of   12): Ti    5 Z at q=( 0.000, 0.000, 0.000):  17330.04s
  Parallel strategy changed for perturbation using 297 k-points
  Data is distributed by G-vector(6-way) and k-point(32-way) and band(1-way)
 Perturbation   10 (of   12): V     1 X at q=( 0.000, 0.000, 0.000):  17987.77s
  Parallel strategy changed for perturbation using 162 k-points
  Data is distributed by G-vector(32-way) and k-point(6-way) and band(1-way)
 Perturbation   11 (of   12): V     1 Y at q=( 0.000, 0.000, 0.000):  18441.64s
 Perturbation   12 (of   12): V     1 Z at q=( 0.000, 0.000, 0.000):  18891.56s
  Parallel strategy changed for perturbation using 297 k-points
  Data is distributed by G-vector(6-way) and k-point(32-way) and band(1-way)

 Phonon supercell    4 (of 5)      [  0  0  1;  1  1  0; -1  1  0]:   19558.42s
 -------------------------------------------------------------------------------
  Parallel strategy changed for perturbation using 90 k-points
  Data is distributed by G-vector(6-way) and k-point(32-way) and band(1-way)

Writing analysis data to ti64_hcp_phonon_VV.castep_bin

Writing model to ti64_hcp_phonon_VV.check
 Perturbation    1 (of    9): Ti    1 X at q=( 0.000, 0.000, 0.000):  19725.36s
  Parallel strategy changed for perturbation using 162 k-points
  Data is distributed by G-vector(6-way) and k-point(32-way) and band(1-way)
 Perturbation    2 (of    9): Ti    1 Y at q=( 0.000, 0.000, 0.000):  20221.84s
 Perturbation    3 (of    9): Ti    1 Z at q=( 0.000, 0.000, 0.000):  20680.44s
  Parallel strategy changed for perturbation using 297 k-points
  Data is distributed by G-vector(6-way) and k-point(32-way) and band(1-way)
 Perturbation    4 (of    9): Ti    5 X at q=( 0.000, 0.000, 0.000):  21381.57s
  Parallel strategy changed for perturbation using 162 k-points
  Data is distributed by G-vector(6-way) and k-point(32-way) and band(1-way)
 Perturbation    5 (of    9): Ti    5 Y at q=( 0.000, 0.000, 0.000):  21872.90s
  Parallel strategy changed for perturbation using 90 k-points
  Data is distributed by G-vector(32-way) and k-point(6-way) and band(1-way)
 Perturbation    6 (of    9): Ti    5 Z at q=( 0.000, 0.000, 0.000):  22179.33s
  Parallel strategy changed for perturbation using 165 k-points
  Data is distributed by G-vector(6-way) and k-point(32-way) and band(1-way)
 Perturbation    7 (of    9): V     1 X at q=( 0.000, 0.000, 0.000):  22705.19s
  Parallel strategy changed for perturbation using 162 k-points
  Data is distributed by G-vector(6-way) and k-point(32-way) and band(1-way)
 Perturbation    8 (of    9): V     1 Y at q=( 0.000, 0.000, 0.000):  23215.74s
  Parallel strategy changed for perturbation using 90 k-points
  Data is distributed by G-vector(32-way) and k-point(6-way) and band(1-way)
 Perturbation    9 (of    9): V     1 Z at q=( 0.000, 0.000, 0.000):  23520.70s
  Parallel strategy changed for perturbation using 165 k-points
  Data is distributed by G-vector(6-way) and k-point(32-way) and band(1-way)

 Phonon supercell    5 (of 5)      [  1  1  0;  0  1 -1;  0  1  1]:   24012.76s
 -------------------------------------------------------------------------------
  Parallel strategy changed for perturbation using 200 k-points
  Data is distributed by G-vector(6-way) and k-point(32-way) and band(1-way)

Writing analysis data to ti64_hcp_phonon_VV.castep_bin

Writing model to ti64_hcp_phonon_VV.check
 Perturbation    1 (of    9): Ti    1 X at q=( 0.000, 0.000, 0.000):  24396.08s
  Parallel strategy changed for perturbation using 380 k-points
  Data is distributed by G-vector(6-way) and k-point(32-way) and band(1-way)
  +---------------- MEMORY AND SCRATCH DISK ESTIMATES PER PROCESS --------------+
  |                                                     Memory          Disk    |
  | Baseline code, static data and system overhead      591.0 MB         0.0 MB |
  | BLAS internal memory storage                          0.0 MB         0.0 MB |
  | Model and support data                              738.5 MB         0.0 MB |
  | Finite displacement phonon requirements             294.1 MB         0.0 MB |
  |                                               ----------------------------- |
  | Approx. total storage required per process         1623.6 MB         0.0 MB |
  |                                                                             |
  | Requirements will fluctuate during execution and may exceed these estimates |
  +-----------------------------------------------------------------------------+
 Perturbation    2 (of    9): Ti    1 Y at q=( 0.000, 0.000, 0.000):  25431.90s
 Perturbation    3 (of    9): Ti    1 Z at q=( 0.000, 0.000, 0.000):  26431.32s
  Parallel strategy changed for perturbation using 672 k-points
  Data is distributed by G-vector(6-way) and k-point(32-way) and band(1-way)
  +---------------- MEMORY AND SCRATCH DISK ESTIMATES PER PROCESS --------------+
  |                                                     Memory          Disk    |
  | Baseline code, static data and system overhead      591.0 MB         0.0 MB |
  | BLAS internal memory storage                          0.0 MB         0.0 MB |
  | Model and support data                              738.5 MB         0.0 MB |
  | Finite displacement phonon requirements             428.8 MB         0.0 MB |
  |                                               ----------------------------- |
  | Approx. total storage required per process         1758.3 MB         0.0 MB |
  |                                                                             |
  | Requirements will fluctuate during execution and may exceed these estimates |
  +-----------------------------------------------------------------------------+
 Perturbation    4 (of    9): Ti    5 X at q=( 0.000, 0.000, 0.000):  28026.19s
  Parallel strategy changed for perturbation using 380 k-points
  Data is distributed by G-vector(6-way) and k-point(32-way) and band(1-way)
 Perturbation    5 (of    9): Ti    5 Y at q=( 0.000, 0.000, 0.000):  29059.87s
  Parallel strategy changed for perturbation using 200 k-points
  Data is distributed by G-vector(24-way) and k-point(8-way) and band(1-way)
 Perturbation    6 (of    9): Ti    5 Z at q=( 0.000, 0.000, 0.000):  29531.59s
  Parallel strategy changed for perturbation using 352 k-points
  Data is distributed by G-vector(6-way) and k-point(32-way) and band(1-way)
 Perturbation    7 (of    9): V     1 X at q=( 0.000, 0.000, 0.000):  30485.10s
  Parallel strategy changed for perturbation using 380 k-points
  Data is distributed by G-vector(6-way) and k-point(32-way) and band(1-way)
 Perturbation    8 (of    9): V     1 Y at q=( 0.000, 0.000, 0.000):  31540.90s
  Parallel strategy changed for perturbation using 200 k-points
  Data is distributed by G-vector(24-way) and k-point(8-way) and band(1-way)
 Perturbation    9 (of    9): V     1 Z at q=( 0.000, 0.000, 0.000):  32022.34s
  Parallel strategy changed for perturbation using 352 k-points
  Data is distributed by G-vector(6-way) and k-point(32-way) and band(1-way)
 %%%%%%%%%%%%%%%%%%%%%%%%%%%%%%%%%%%%%%%%%%%%%%%%%%%%%%%%%%%%%%%%%%%%%%%%%%%%%%%%%%%%%%%%%%%%%%%%%%%%%%%%%%%%%%%%%%%
            Force Constant matrix
 Ion XYZ  L          part  (eV/A**2)
 Supercell   1 at (0,0,0)        0.000 A                             
   1   1          5.782568         -1.006967          0.000000          0.277388          0.056196         -0.117007
                  0.041403          0.050007          0.000000         -0.035201          0.010016          0.017655
                 -0.302109          1.110206          0.000000         -0.008170         -0.009992         -0.066463
                 -0.237353         -0.644311          0.000000         -0.037840          0.007051          0.079086
   1   2         -1.006967          5.030923          0.000000          0.056196         -0.883097          0.912401
                 -0.066050          0.010946          0.000000         -0.010016          0.046724          0.014489
                 -0.090689         -1.203551          0.000000         -0.017758         -0.069328          0.073665
                  0.488745         -0.345948          0.000000          0.021626         -0.039226          0.098364
   1   3          0.000000          0.000000          5.250125         -0.117007          0.912401         -0.838303
                  0.000000          0.000000         -0.053186         -0.017655          0.014489          0.014555
                  0.000000          0.000000          0.035896         -0.023683          0.043400          0.012290
                  0.000000          0.000000          0.106856          0.145113          0.082043          0.052909
   2   1          0.277388          0.056196         -0.117007          5.782568         -1.006967          0.000000
                  0.161824         -0.113236         -0.092923          0.041403          0.066050          0.000000
                 -0.579794          0.514491          0.804172         -0.531535          0.106813          0.000000
                 -0.473973         -0.458767         -0.566159         -0.322162         -0.100317          0.000000
   2   2          0.056196         -0.883097          0.912401         -1.006967          5.030923          0.000000
                  0.113236          0.128604          0.120549         -0.050007          0.010946          0.000000
                  0.601073         -0.087498         -0.704247          1.412223         -1.353388          0.000000
                 -0.553470          0.401503         -0.204305         -0.954178         -1.135634          0.000000
   2   3         -0.117007          0.912401         -0.838303          0.000000          0.000000          5.250125
                  0.092923          0.120549          0.275128          0.000000          0.000000         -0.053186
                  0.838402         -0.400755         -0.957327          0.000000          0.000000          0.026889
                 -0.440889          0.029313         -1.077598          0.000000          0.000000          0.305374
   3   1          0.041403         -0.066050          0.000000          0.161824          0.113236          0.092923
                  5.782568          1.006967          0.000000          0.277388         -0.056196          0.117007
                 -0.531535         -0.106813          0.000000         -0.579794         -0.514491         -0.804172
                 -0.322162          0.100317          0.000000         -0.473973          0.458767          0.566159
   3   2          0.050007          0.010946          0.000000         -0.113236          0.128604          0.120549
                  1.006967          5.030923          0.000000         -0.056196         -0.883097          0.912401
                 -1.412223         -1.353388          0.000000         -0.601073         -0.087498         -0.704247
                  0.954178         -1.135634          0.000000          0.553470          0.401503         -0.204305
   3   3          0.000000          0.000000         -0.053186         -0.092923          0.120549          0.275128
                  0.000000          0.000000          5.250125          0.117007          0.912401         -0.838303
                  0.000000          0.000000          0.026889         -0.838402         -0.400755         -0.957327
                  0.000000          0.000000          0.305374          0.440889          0.029313         -1.077598
   4   1         -0.035201         -0.010016         -0.017655          0.041403         -0.050007          0.000000
                  0.277388         -0.056196          0.117007          5.782568          1.006967          0.000000
                 -0.008170          0.009992          0.066463         -0.302109         -1.110206          0.000000
                 -0.037840         -0.007051         -0.079086         -0.237353          0.644311          0.000000
   4   2          0.010016          0.046724          0.014489          0.066050          0.010946          0.000000
                 -0.056196         -0.883097          0.912401          1.006967          5.030923          0.000000
                  0.017758         -0.069328          0.073665          0.090689         -1.203551          0.000000
                 -0.021626         -0.039226          0.098364         -0.488745         -0.345948          0.000000
   4   3          0.017655          0.014489          0.014555          0.000000          0.000000         -0.053186
                  0.117007          0.912401         -0.838303          0.000000          0.000000          5.250125
                  0.023683          0.043400          0.012290          0.000000          0.000000          0.035896
                 -0.145113          0.082043          0.052909          0.000000          0.000000          0.106856
   5   1         -0.302109         -0.090689          0.000000         -0.579794          0.601073          0.838402
                 -0.531535         -1.412223          0.000000         -0.008170          0.017758          0.023683
                  4.179076          0.000000          0.000000          0.255674         -0.000000          0.000000
                 -0.701944          0.327158          0.000000          0.208555          0.020130         -0.142751
   5   2          1.110206         -1.203551          0.000000          0.514491         -0.087498         -0.400755
                 -0.106813         -1.353388          0.000000          0.009992         -0.069328          0.043400
                  0.000000          6.706777          0.000000         -0.000000         -0.915880          1.175504
                 -0.675033         -0.208571          0.000000          0.061690          0.153080         -0.165602
   5   3          0.000000          0.000000          0.035896          0.804172         -0.704247         -0.957327
                  0.000000          0.000000          0.026889          0.066463          0.073665          0.012290
                  0.000000          0.000000          6.078737          0.000000          1.175504         -1.185947
                  0.000000          0.000000          0.123397         -0.338075         -0.039979          0.295108
   6   1         -0.008170         -0.017758         -0.023683         -0.531535          1.412223          0.000000
                 -0.579794         -0.601073         -0.838402         -0.302109          0.090689          0.000000
                  0.255674         -0.000000          0.000000          4.179076          0.000000          0.000000
                  0.208555         -0.020130          0.142751         -0.701944         -0.327158          0.000000
   6   2         -0.009992         -0.069328          0.043400          0.106813         -1.353388          0.000000
                 -0.514491         -0.087498         -0.400755         -1.110206         -1.203551          0.000000
                 -0.000000         -0.915880          1.175504          0.000000          6.706777          0.000000
                 -0.061690          0.153080         -0.165602          0.675033         -0.208571          0.000000
   6   3         -0.066463          0.073665          0.012290          0.000000          0.000000          0.026889
                 -0.804172         -0.704247         -0.957327          0.000000          0.000000          0.035896
                  0.000000          1.175504         -1.185947          0.000000          0.000000          6.078737
                  0.338075         -0.039979          0.295108          0.000000          0.000000          0.123397
   7   1         -0.237353          0.488745          0.000000         -0.473973         -0.553470         -0.440889
                 -0.322162          0.954178          0.000000         -0.037840         -0.021626         -0.145113
                 -0.701944         -0.675033          0.000000          0.208555         -0.061690          0.338075
                  3.010630         -0.000000          0.000000          0.478401         -0.000000          0.000000
   7   2         -0.644311         -0.345948          0.000000         -0.458767          0.401503          0.029313
                  0.100317         -1.135634          0.000000         -0.007051         -0.039226          0.082043
                  0.327158         -0.208571          0.000000         -0.020130          0.153080         -0.039979
                 -0.000000          2.687569          0.000000         -0.000000         -0.736828          0.121920
   7   3          0.000000          0.000000          0.106856         -0.566159         -0.204305         -1.077598
                  0.000000          0.000000          0.305374         -0.079086          0.098364          0.052909
                  0.000000          0.000000          0.123397          0.142751         -0.165602          0.295108
                  0.000000          0.000000          3.899838          0.000000          0.121920         -1.462685
   8   1         -0.037840          0.021626          0.145113         -0.322162         -0.954178          0.000000
                 -0.473973          0.553470          0.440889         -0.237353         -0.488745          0.000000
                  0.208555          0.061690         -0.338075         -0.701944          0.675033          0.000000
                  0.478401         -0.000000          0.000000          3.010630         -0.000000          0.000000
   8   2          0.007051         -0.039226          0.082043         -0.100317         -1.135634          0.000000
                  0.458767          0.401503          0.029313          0.644311         -0.345948          0.000000
                  0.020130          0.153080         -0.039979         -0.327158         -0.208571          0.000000
                 -0.000000         -0.736828          0.121920         -0.000000          2.687569          0.000000
   8   3          0.079086          0.098364          0.052909          0.000000          0.000000          0.305374
                  0.566159         -0.204305         -1.077598          0.000000          0.000000          0.106856
                 -0.142751         -0.165602          0.295108          0.000000          0.000000          0.123397
                  0.000000          0.121920         -1.462685          0.000000          0.000000          3.899838

 Supercell   2 at (1,0,0)        5.744 A                             
   1   1         -0.058928          0.128530          0.000000         -0.011843          0.010018          0.043863
                 -1.255131          0.524225          0.000000          0.214854          0.066715         -0.214077
                 -0.531535          0.106813          0.000000         -0.579794          0.514491          0.804172
                 -0.040536          0.133554          0.000000         -0.029772          0.027272          0.111159
   1   2          0.128530         -0.172419          0.000000          0.010018         -0.022130         -0.090840
                 -0.524225          0.035523          0.000000          0.035043          0.147333         -0.129311
                  1.412223         -1.353388          0.000000          0.601073         -0.087498         -0.704247
                  0.070373          0.101217          0.000000          0.032466          0.017747          0.042751
   1   3          0.000000          0.000000          0.027587          0.043863         -0.090840          0.023246
                  0.000000          0.000000         -0.082043         -0.181009         -0.181296          0.225232
                  0.000000          0.000000          0.026889          0.838402         -0.400755         -0.957327
                  0.000000          0.000000         -0.051228          0.184440         -0.010765          0.006422
   2   1         -0.011843          0.010018          0.043863         -0.058928          0.128530          0.000000
                  0.214854         -0.035043          0.181009         -2.068431         -0.450059          0.000000
                 -0.008170         -0.009992         -0.066463         -0.302109          1.110206          0.000000
                 -0.001524         -0.008309         -0.067086         -0.019109         -0.057311          0.000000
   2   2          0.010018         -0.022130         -0.090840          0.128530         -0.172419          0.000000
                 -0.066715          0.147333         -0.181296          0.450059          0.107454          0.000000
                 -0.017758         -0.069328          0.073665         -0.090689         -1.203551          0.000000
                 -0.018048          0.078464          0.035196          0.105273          0.004084          0.000000
   2   3          0.043863         -0.090840          0.023246          0.000000          0.000000          0.027587
                  0.214077         -0.129311          0.225232          0.000000          0.000000          0.073652
                 -0.023683          0.043400          0.012290          0.000000          0.000000          0.035896
                 -0.039827          0.017768         -0.128775          0.000000          0.000000         -0.075430
   3   1         -1.255131         -0.524225          0.000000          0.214854         -0.066715          0.214077
                  0.023291          0.013644          0.000000          0.022659          0.038331          0.081938
                 -0.042924         -0.024228          0.000000          0.034378         -0.021593         -0.036445
                 -0.237353          0.644311          0.000000         -0.037840         -0.007051         -0.079086
   3   2          0.524225          0.035523          0.000000         -0.035043          0.147333         -0.129311
                  0.013644         -0.137515          0.000000          0.038331         -0.174119         -0.171533
                  0.049783         -0.009065          0.000000          0.000283          0.064015         -0.043186
                 -0.488745         -0.345948          0.000000         -0.021626         -0.039226          0.098364
   3   3          0.000000          0.000000         -0.082043          0.181009         -0.181296          0.225232
                  0.000000          0.000000         -0.067995          0.081938         -0.171533          0.108252
                  0.000000          0.000000         -0.084767         -0.005707         -0.018615         -0.148856
                  0.000000          0.000000          0.106856         -0.145113          0.082043          0.052909
   4   1          0.214854          0.035043         -0.181009         -2.068431          0.450059          0.000000
                  0.022659          0.038331          0.081938          0.023291          0.013644          0.000000
                 -0.039070         -0.023469          0.126533         -0.056681          0.025369          0.000000
                 -0.473973          0.458767          0.566159         -0.322162          0.100317          0.000000
   4   2          0.066715          0.147333         -0.181296         -0.450059          0.107454          0.000000
                  0.038331         -0.174119         -0.171533          0.013644         -0.137515          0.000000
                  0.033337         -0.004987          0.002361          0.047382          0.072848          0.000000
                  0.553470          0.401503         -0.204305          0.954178         -1.135634          0.000000
   4   3         -0.214077         -0.129311          0.225232          0.000000          0.000000          0.073652
                  0.081938         -0.171533          0.108252          0.000000          0.000000         -0.067995
                  0.150500          0.006689          0.020985          0.000000          0.000000         -0.045034
                  0.440889          0.029313         -1.077598          0.000000          0.000000          0.305374
   5   1         -0.531535          1.412223          0.000000         -0.008170         -0.017758         -0.023683
                 -0.042924          0.049783          0.000000         -0.039070          0.033337          0.150500
                 -0.096855         -0.017948          0.000000         -0.081049          0.004873          0.026032
                  0.026767         -0.000000          0.000000          0.080405          0.000000          0.000000
   5   2          0.106813         -1.353388          0.000000         -0.009992         -0.069328          0.043400
                 -0.024228         -0.009065          0.000000         -0.023469         -0.004987          0.006689
                 -0.017948         -0.010380          0.000000          0.004873         -0.008088         -0.063709
                 -0.000000          0.128617          0.000000         -0.000000          0.068091          0.006256
   5   3          0.000000          0.000000          0.026889         -0.066463          0.073665          0.012290
                  0.000000          0.000000         -0.084767          0.126533          0.002361          0.020985
                  0.000000          0.000000          0.083268          0.026032         -0.063709          0.035268
                  0.000000          0.000000         -0.066377          0.000000          0.013717         -0.018992
   6   1         -0.579794          0.601073          0.838402         -0.302109         -0.090689          0.000000
                  0.034378          0.000283         -0.005707         -0.056681          0.047382          0.000000
                 -0.081049          0.004873          0.026032         -0.096855         -0.017948          0.000000
                  0.199022         -0.000000          0.000000          0.126449         -0.000000          0.000000
   6   2          0.514491         -0.087498         -0.400755          1.110206         -1.203551          0.000000
                 -0.021593          0.064015         -0.018615          0.025369          0.072848          0.000000
                  0.004873         -0.008088         -0.063709         -0.017948         -0.010380          0.000000
                 -0.000000          0.044377          0.170025         -0.000000          0.038238          0.000000
   6   3          0.804172         -0.704247         -0.957327          0.000000          0.000000          0.035896
                 -0.036445         -0.043186         -0.148856          0.000000          0.000000         -0.045034
                  0.026032         -0.063709          0.035268          0.000000          0.000000          0.083268
                  0.000000          0.200816          0.179086          0.000000          0.000000         -0.016863
   7   1         -0.040536          0.070373          0.000000         -0.001524         -0.018048         -0.039827
                 -0.237353         -0.488745          0.000000         -0.473973          0.553470          0.440889
                  0.026767         -0.000000          0.000000          0.199022         -0.000000          0.000000
                 -0.145273          0.408603          0.000000         -0.098347          0.037669         -0.024213
   7   2          0.133554          0.101217          0.000000         -0.008309          0.078464          0.017768
                  0.644311         -0.345948          0.000000          0.458767          0.401503          0.029313
                 -0.000000          0.128617          0.000000         -0.000000          0.044377          0.200816
                  0.408603         -0.201779          0.000000          0.037669         -0.163406         -0.039271
   7   3          0.000000          0.000000         -0.051228         -0.067086          0.035196         -0.128775
                  0.000000          0.000000          0.106856          0.566159         -0.204305         -1.077598
                  0.000000          0.000000         -0.066377          0.000000          0.170025          0.179086
                  0.000000          0.000000         -0.198892         -0.024213         -0.039271          0.085897
   8   1         -0.029772          0.032466          0.184440         -0.019109          0.105273          0.000000
                 -0.037840         -0.021626         -0.145113         -0.322162          0.954178          0.000000
                  0.080405         -0.000000          0.000000          0.126449         -0.000000          0.000000
                 -0.098347          0.037669         -0.024213         -0.145273          0.408603          0.000000
   8   2          0.027272          0.017747         -0.010765         -0.057311          0.004084          0.000000
                 -0.007051         -0.039226          0.082043          0.100317         -1.135634          0.000000
                  0.000000          0.068091          0.013717         -0.000000          0.038238          0.000000
                  0.037669         -0.163406         -0.039271          0.408603         -0.201779          0.000000
   8   3          0.111159          0.042751          0.006422          0.000000          0.000000         -0.075430
                 -0.079086          0.098364          0.052909          0.000000          0.000000          0.305374
                  0.000000          0.006256         -0.018992          0.000000          0.000000         -0.016863
                 -0.024213         -0.039271          0.085897          0.000000          0.000000         -0.198892

 Supercell   3 at (0,1,0)        5.744 A                             
   1   1          0.023291         -0.013644          0.000000          0.022659         -0.038331         -0.081938
                 -2.068431         -0.450059          0.000000          0.214854         -0.035043          0.181009
                 -0.056681         -0.025369          0.000000         -0.039070          0.023469         -0.126533
                 -0.322162         -0.100317          0.000000         -0.473973         -0.458767         -0.566159
   1   2         -0.013644         -0.137515          0.000000         -0.038331         -0.174119         -0.171533
                  0.450059          0.107454          0.000000         -0.066715          0.147333         -0.181296
                 -0.047382          0.072848          0.000000         -0.033337         -0.004987          0.002361
                 -0.954178         -1.135634          0.000000         -0.553470          0.401503         -0.204305
   1   3          0.000000          0.000000         -0.067995         -0.081938         -0.171533          0.108252
                  0.000000          0.000000          0.073652          0.214077         -0.129311          0.225232
                  0.000000          0.000000         -0.045034         -0.150500          0.006689          0.020985
                  0.000000          0.000000          0.305374         -0.440889          0.029313         -1.077598
   2   1          0.022659         -0.038331         -0.081938          0.023291         -0.013644          0.000000
                  0.214854          0.066715         -0.214077         -1.255131          0.524225          0.000000
                  0.034378          0.021593          0.036445         -0.042924          0.024228          0.000000
                 -0.037840          0.007051          0.079086         -0.237353         -0.644311          0.000000
   2   2         -0.038331         -0.174119         -0.171533         -0.013644         -0.137515          0.000000
                  0.035043          0.147333         -0.129311         -0.524225          0.035523          0.000000
                 -0.000283          0.064015         -0.043186         -0.049783         -0.009065          0.000000
                  0.021626         -0.039226          0.098364          0.488745         -0.345948          0.000000
   2   3         -0.081938         -0.171533          0.108252          0.000000          0.000000         -0.067995
                 -0.181009         -0.181296          0.225232          0.000000          0.000000         -0.082043
                  0.005707         -0.018615         -0.148856          0.000000          0.000000         -0.084767
                  0.145113          0.082043          0.052909          0.000000          0.000000          0.106856
   3   1         -2.068431          0.450059          0.000000          0.214854          0.035043         -0.181009
                 -0.058928         -0.128530          0.000000         -0.011843         -0.010018         -0.043863
                 -0.302109         -1.110206          0.000000         -0.008170          0.009992          0.066463
                 -0.019109          0.057311          0.000000         -0.001524          0.008309          0.067086
   3   2         -0.450059          0.107454          0.000000          0.066715          0.147333         -0.181296
                 -0.128530         -0.172419          0.000000         -0.010018         -0.022130         -0.090840
                  0.090689         -1.203551          0.000000          0.017758         -0.069328          0.073665
                 -0.105273          0.004084          0.000000          0.018048          0.078464          0.035196
   3   3          0.000000          0.000000          0.073652         -0.214077         -0.129311          0.225232
                  0.000000          0.000000          0.027587         -0.043863         -0.090840          0.023246
                  0.000000          0.000000          0.035896          0.023683          0.043400          0.012290
                  0.000000          0.000000         -0.075430          0.039827          0.017768         -0.128775
   4   1          0.214854         -0.066715          0.214077         -1.255131         -0.524225          0.000000
                 -0.011843         -0.010018         -0.043863         -0.058928         -0.128530          0.000000
                 -0.579794         -0.514491         -0.804172         -0.531535         -0.106813          0.000000
                 -0.029772         -0.027272         -0.111159         -0.040536         -0.133554          0.000000
   4   2         -0.035043          0.147333         -0.129311          0.524225          0.035523          0.000000
                 -0.010018         -0.022130         -0.090840         -0.128530         -0.172419          0.000000
                 -0.601073         -0.087498         -0.704247         -1.412223         -1.353388          0.000000
                 -0.032466          0.017747          0.042751         -0.070373          0.101217          0.000000
   4   3          0.181009         -0.181296          0.225232          0.000000          0.000000         -0.082043
                 -0.043863         -0.090840          0.023246          0.000000          0.000000          0.027587
                 -0.838402         -0.400755         -0.957327          0.000000          0.000000          0.026889
                 -0.184440         -0.010765          0.006422          0.000000          0.000000         -0.051228
   5   1         -0.056681         -0.047382          0.000000          0.034378         -0.000283          0.005707
                 -0.302109          0.090689          0.000000         -0.579794         -0.601073         -0.838402
                 -0.096855          0.017948          0.000000         -0.081049         -0.004873         -0.026032
                  0.126449         -0.000000          0.000000          0.199022         -0.000000          0.000000
   5   2         -0.025369          0.072848          0.000000          0.021593          0.064015         -0.018615
                 -1.110206         -1.203551          0.000000         -0.514491         -0.087498         -0.400755
                  0.017948         -0.010380          0.000000         -0.004873         -0.008088         -0.063709
                 -0.000000          0.038238          0.000000         -0.000000          0.044377          0.170025
   5   3          0.000000          0.000000         -0.045034          0.036445         -0.043186         -0.148856
                  0.000000          0.000000          0.035896         -0.804172         -0.704247         -0.957327
                  0.000000          0.000000          0.083268         -0.026032         -0.063709          0.035268
                  0.000000          0.000000         -0.016863          0.000000          0.200816          0.179086
   6   1         -0.039070         -0.033337         -0.150500         -0.042924         -0.049783          0.000000
                 -0.008170          0.017758          0.023683         -0.531535         -1.412223          0.000000
                 -0.081049         -0.004873         -0.026032         -0.096855          0.017948          0.000000
                  0.080405          0.000000          0.000000          0.026767         -0.000000          0.000000
   6   2          0.023469         -0.004987          0.006689          0.024228         -0.009065          0.000000
                  0.009992         -0.069328          0.043400         -0.106813         -1.353388          0.000000
                 -0.004873         -0.008088         -0.063709          0.017948         -0.010380          0.000000
                 -0.000000          0.068091          0.006256         -0.000000          0.128617          0.000000
   6   3         -0.126533          0.002361          0.020985          0.000000          0.000000         -0.084767
                  0.066463          0.073665          0.012290          0.000000          0.000000          0.026889
                 -0.026032         -0.063709          0.035268          0.000000          0.000000          0.083268
                  0.000000          0.013717         -0.018992          0.000000          0.000000         -0.066377
   7   1         -0.322162         -0.954178          0.000000         -0.037840          0.021626          0.145113
                 -0.019109         -0.105273          0.000000         -0.029772         -0.032466         -0.184440
                  0.126449         -0.000000          0.000000          0.080405         -0.000000          0.000000
                 -0.145273         -0.408603          0.000000         -0.098347         -0.037669          0.024213
   7   2         -0.100317         -1.135634          0.000000          0.007051         -0.039226          0.082043
                  0.057311          0.004084          0.000000         -0.027272          0.017747         -0.010765
                 -0.000000          0.038238          0.000000          0.000000          0.068091          0.013717
                 -0.408603         -0.201779          0.000000         -0.037669         -0.163406         -0.039271
   7   3          0.000000          0.000000          0.305374          0.079086          0.098364          0.052909
                  0.000000          0.000000         -0.075430         -0.111159          0.042751          0.006422
                  0.000000          0.000000         -0.016863          0.000000          0.006256         -0.018992
                  0.000000          0.000000         -0.198892          0.024213         -0.039271          0.085897
   8   1         -0.473973         -0.553470         -0.440889         -0.237353          0.488745          0.000000
                 -0.001524          0.018048          0.039827         -0.040536         -0.070373          0.000000
                  0.199022         -0.000000          0.000000          0.026767         -0.000000          0.000000
                 -0.098347         -0.037669          0.024213         -0.145273         -0.408603          0.000000
   8   2         -0.458767          0.401503          0.029313         -0.644311         -0.345948          0.000000
                  0.008309          0.078464          0.017768         -0.133554          0.101217          0.000000
                 -0.000000          0.044377          0.200816         -0.000000          0.128617          0.000000
                 -0.037669         -0.163406         -0.039271         -0.408603         -0.201779          0.000000
   8   3         -0.566159         -0.204305         -1.077598          0.000000          0.000000          0.106856
                  0.067086          0.035196         -0.128775          0.000000          0.000000         -0.051228
                  0.000000          0.170025          0.179086          0.000000          0.000000         -0.066377
                  0.024213         -0.039271          0.085897          0.000000          0.000000         -0.198892

 Supercell   4 at (1,1,0)        5.744 A                             
   1   1         -0.198712         -0.021880          0.000000          0.065607         -0.005311         -0.028816
                  0.041403          0.066050          0.000000          0.161824         -0.113236         -0.092923
                 -0.042924          0.024228          0.000000          0.034378          0.021593          0.036445
                 -0.019109         -0.057311          0.000000         -0.001524         -0.008309         -0.067086
   1   2         -0.021880         -0.131458          0.000000         -0.005311         -0.007718          0.035747
                 -0.050007          0.010946          0.000000          0.113236          0.128604          0.120549
[...]
 +  q-pt=   25 (  0.000000  0.000000  0.357143)     0.0370370370              +
 + -------------------------------------------------------------------------- +
 +  Acoustic sum rule correction <   0.540555 THz applied                     +
 +     N      Frequency irrep.                                                + 
 +                 (THz)                                                      + 
 +                                                                            +
 +     1      -0.883525   a                                                   + 
 +     2      -0.698570   b                                                   + 
 +     3      -0.167997   c                                                   + 
 +     4       1.621673   d                                                   + 
 +     5       1.888808   b                                                   + 
 +     6       2.101030   d                                                   + 
 +     7       2.346013   a                                                   + 
 +     8       2.740756   c                                                   + 
 +     9       3.505148   c                                                   + 
 +    10       3.784710   a                                                   + 
 +    11       3.896775   b                                                   + 
 +    12       4.535220   d                                                   + 
 +    13       4.666718   a                                                   + 
 +    14       5.035341   d                                                   + 
 +    15       5.066221   c                                                   + 
 +    16       5.239789   b                                                   + 
 +    17       5.547945   d                                                   + 
 +    18       5.971773   c                                                   + 
 +    19       6.349616   a                                                   + 
 +    20       6.436545   c                                                   + 
 +    21       6.541498   d                                                   + 
 +    22       6.959769   b                                                   + 
 +    23       7.976302   d                                                   + 
 +    24       8.098203   c                                                   + 
 + .......................................................................... +
 +        Character table from group theory analysis of eigenvectors          +
 +                           Point Group =   8, D2h                           +
 + .......................................................................... +
 +  Rep  Mul |    E   2   m   m                                               +
 +           | ----------------                                               +
 + a       5 |    1   1  -1  -1                                               +
 + b       5 |    1  -1  -1   1                                               +
 + c       7 |    1  -1   1  -1                                               +
 + d       7 |    1   1   1   1                                               +
 + -------------------------------------------------------------------------- +
 +  q-pt=   26 (  0.000000  0.000000  0.428571)     0.0370370370              +
 + -------------------------------------------------------------------------- +
 +  Acoustic sum rule correction <   0.524606 THz applied                     +
 +     N      Frequency irrep.                                                + 
 +                 (THz)                                                      + 
 +                                                                            +
 +     1      -0.939516   a                                                   + 
 +     2      -0.734092   b                                                   + 
 +     3       0.678381   c                                                   + 
 +     4       1.371060   d                                                   + 
 +     5       2.569717   b                                                   + 
 +     6       2.615846   d                                                   + 
 +     7       2.624138   a                                                   + 
 +     8       3.316892   c                                                   + 
 +     9       3.408926   b                                                   + 
 +    10       3.515763   c                                                   + 
 +    11       3.720878   a                                                   + 
 +    12       4.444133   a                                                   + 
 +    13       4.446958   d                                                   + 
 +    14       4.899402   b                                                   + 
 +    15       4.900068   c                                                   + 
 +    16       5.136241   d                                                   + 
 +    17       5.346866   d                                                   + 
 +    18       5.966639   c                                                   + 
 +    19       6.275015   c                                                   + 
 +    20       6.441083   d                                                   + 
 +    21       6.568775   a                                                   + 
 +    22       6.908903   b                                                   + 
 +    23       8.055393   d                                                   + 
 +    24       8.122994   c                                                   + 
 + .......................................................................... +
 +        Character table from group theory analysis of eigenvectors          +
 +                           Point Group =   8, D2h                           +
 + .......................................................................... +
 +  Rep  Mul |    E   2   m   m                                               +
 +           | ----------------                                               +
 + a       5 |    1   1  -1  -1                                               +
 + b       5 |    1  -1  -1   1                                               +
 + c       7 |    1  -1   1  -1                                               +
 + d       7 |    1   1   1   1                                               +
 + -------------------------------------------------------------------------- +
 +  q-pt=   27 (  0.000000  0.000000  0.500000)     0.0370370370              +
 + -------------------------------------------------------------------------- +
 +  Acoustic sum rule correction <   0.520131 THz applied                     +
 +     N      Frequency irrep.                                                + 
 +                 (THz)                                                      + 
 +                                                                            +
 +     1      -0.876478   a                                                   + 
 +     2      -0.876478   a                                                   + 
 +     3       1.059709   b                                                   + 
 +     4       1.059709   b                                                   + 
 +     5       2.906588   a                                                   + 
 +     6       2.906588   a                                                   + 
 +     7       3.122907   b                                                   + 
 +     8       3.122907   b                                                   + 
 +     9       3.291384   a                                                   + 
 +    10       3.291384   a                                                   + 
 +    11       3.912339   b                                                   + 
 +    12       3.912339   b                                                   + 
 +    13       4.597457   a                                                   + 
 +    14       4.597457   a                                                   + 
 +    15       5.014465   b                                                   + 
 +    16       5.014465   b                                                   + 
 +    17       5.671843   b                                                   + 
 +    18       5.671843   b                                                   + 
 +    19       6.335089   b                                                   + 
 +    20       6.335089   b                                                   + 
 +    21       6.773202   a                                                   + 
 +    22       6.773202   a                                                   + 
 +    23       8.108938   b                                                   + 
 +    24       8.108938   b                                                   + 
 + .......................................................................... +
 +        Character table from group theory analysis of eigenvectors          +
 +                           Point Group =   8, D2h                           +
 + .......................................................................... +
 +  Rep  Mul |    E   I   2   m   2   m   2   m                               +
 +           | --------------------------------                               +
 + a       5 |    2   0   0   0   0  -2   0   0                               +
 + b       7 |    2   0   0   0   0   2   0   0                               +
 ==============================================================================

 ******************** Symmetrised Forces ********************
 *                                                          *
 *               Cartesian components (eV/A)                *
 * -------------------------------------------------------- *
 *                         x            y            z      *
 *                                                          *
 * Ti              1      0.00201     -0.02531     -0.00000 *
 * Ti              2     -0.00201      0.02531      0.00000 *
 * Ti              3     -0.00201     -0.02531     -0.00000 *
 * Ti              4      0.00201      0.02531      0.00000 *
 * Ti              5     -0.00000     -0.01068      0.00000 *
 * Ti              6      0.00000      0.01068     -0.00000 *
 * V               1     -0.00000     -0.03938     -0.00000 *
 * V               2      0.00000      0.03938      0.00000 *
 *                                                          *
 ************************************************************

 *********** Symmetrised Stress Tensor ***********
 *                                               *
 *          Cartesian components (GPa)           *
 * --------------------------------------------- *
 *             x             y             z     *
 *                                               *
 *  x      1.406531     -0.000000      0.000000  *
 *  y     -0.000000     -1.383374      0.000000  *
 *  z      0.000000      0.000000     -0.011871  *
 *                                               *
 *  Pressure:   -0.0038                          *
 *                                               *
 *************************************************

 Pseudo atomic calculation performed for Ti 3s2 3p6 3d2 4s2

 Converged in 51 iterations to a total energy of -1587.0236 eV

 Pseudo atomic calculation performed for V 3s2 3p6 3d3 4s2

 Converged in 52 iterations to a total energy of -2065.7874 eV
Charge spilling parameter for spin component 1 = 0.06%

            Orbital Populations       
     Ion    Atom   Orbital             Charge
  -------------------------------------------
     Ti     1      S                    2.003
     Ti     1      Px                   2.006
     Ti     1      Py                   2.006
     Ti     1      Pz                   2.006
     Ti     1      S                    0.277
     Ti     1      Dzz                  0.585
     Ti     1      Dzy                  0.467
     Ti     1      Dzx                  0.505
     Ti     1      Dxx-yy               0.539
     Ti     1      Dxy                  0.585
     Ti     1      Px                   0.321
     Ti     1      Py                   0.331
     Ti     1      Pz                   0.323
     Ti     2      S                    2.003
     Ti     2      Px                   2.006
     Ti     2      Py                   2.006
     Ti     2      Pz                   2.006
     Ti     2      S                    0.277
     Ti     2      Dzz                  0.585
     Ti     2      Dzy                  0.467
     Ti     2      Dzx                  0.505
     Ti     2      Dxx-yy               0.539
     Ti     2      Dxy                  0.585
     Ti     2      Px                   0.321
     Ti     2      Py                   0.331
     Ti     2      Pz                   0.323
     Ti     3      S                    2.003
     Ti     3      Px                   2.006
     Ti     3      Py                   2.006
     Ti     3      Pz                   2.006
     Ti     3      S                    0.279
     Ti     3      Dzz                  0.591
     Ti     3      Dzy                  0.482
     Ti     3      Dzx                  0.517
     Ti     3      Dxx-yy               0.539
     Ti     3      Dxy                  0.581
     Ti     3      Px                   0.324
     Ti     3      Py                   0.330
     Ti     3      Pz                   0.322
     Ti     4      S                    2.003
     Ti     4      Px                   2.006
     Ti     4      Py                   2.006
     Ti     4      Pz                   2.006
     Ti     4      S                    0.279
     Ti     4      Dzz                  0.591
     Ti     4      Dzy                  0.482
     Ti     4      Dzx                  0.517
     Ti     4      Dxx-yy               0.539
     Ti     4      Dxy                  0.581
     Ti     4      Px                   0.324
     Ti     4      Py                   0.330
     Ti     4      Pz                   0.322
     Ti     5      S                    2.005
     Ti     5      Px                   2.007
     Ti     5      Py                   2.007
     Ti     5      Pz                   2.007
     Ti     5      S                    0.296
     Ti     5      Dzz                  0.618
     Ti     5      Dzy                  0.517
     Ti     5      Dzx                  0.457
     Ti     5      Dxx-yy               0.595
     Ti     5      Dxy                  0.543
     Ti     5      Px                   0.350
     Ti     5      Py                   0.332
     Ti     5      Pz                   0.308
     Ti     6      S                    2.005
     Ti     6      Px                   2.007
     Ti     6      Py                   2.007
     Ti     6      Pz                   2.007
     Ti     6      S                    0.296
     Ti     6      Dzz                  0.618
     Ti     6      Dzy                  0.517
     Ti     6      Dzx                  0.457
     Ti     6      Dxx-yy               0.595
     Ti     6      Dxy                  0.543
     Ti     6      Px                   0.350
     Ti     6      Py                   0.332
     Ti     6      Pz                   0.308
      V     1      S                    2.001
      V     1      Px                   2.003
      V     1      Py                   2.003
      V     1      Pz                   2.003
      V     1      Dzz                  0.841
      V     1      Dzy                  0.725
      V     1      Dzx                  0.601
      V     1      Dxx-yy               0.776
      V     1      Dxy                  0.768
      V     1      S                    0.331
      V     1      Px                   0.315
      V     1      Py                   0.317
      V     1      Pz                   0.338
      V     2      S                    2.001
      V     2      Px                   2.003
      V     2      Py                   2.003
      V     2      Pz                   2.003
      V     2      Dzz                  0.841
      V     2      Dzy                  0.725
      V     2      Dzx                  0.601
      V     2      Dxx-yy               0.776
      V     2      Dxy                  0.768
      V     2      S                    0.331
      V     2      Px                   0.315
      V     2      Py                   0.317
      V     2      Pz                   0.338
  -------------------------------------------
                           Total:      98.000
  -------------------------------------------

     Atomic Populations (Mulliken)
     -----------------------------
Species          Ion     s       p       d       f      Total   Charge (e)
==========================================================================
  Ti              1     2.281   6.992   2.695   0.000  11.968     0.032
  Ti              2     2.281   6.992   2.695   0.000  11.968     0.032
  Ti              3     2.281   6.992   2.695   0.000  11.968     0.032
  Ti              4     2.281   6.992   2.695   0.000  11.968     0.032
  Ti              5     2.300   7.011   2.730   0.000  12.041    -0.041
  Ti              6     2.300   7.011   2.730   0.000  12.041    -0.041
  V               1     2.333   6.980   3.710   0.000  13.023    -0.023
  V               2     2.333   6.980   3.710   0.000  13.023    -0.023
==========================================================================

                 Bond                   Population      Length (A)
======================================================================
               V 1 -- V 2                    0.29        2.72024
              Ti 4 -- V 2                    0.30        2.75675
              Ti 3 -- V 1                    0.30        2.75675
              Ti 1 -- V 1                    0.30        2.75675
              Ti 2 -- V 2                    0.30        2.75675
              Ti 2 -- Ti 4                   0.20        2.80084
              Ti 1 -- Ti 3                   0.20        2.80084
              Ti 5 -- Ti 6                  -0.09        2.80770
              Ti 3 -- Ti 4                   0.04        2.84748
              Ti 1 -- Ti 2                   0.04        2.84748
              Ti 4 -- V 1                    0.09        2.84756
              Ti 3 -- V 2                    0.09        2.84756
              Ti 2 -- V 1                    0.09        2.84756
              Ti 1 -- V 2                    0.09        2.84756
              Ti 4 -- Ti 5                  -0.04        2.85877
              Ti 3 -- Ti 6                  -0.04        2.85877
              Ti 2 -- Ti 5                  -0.04        2.85877
              Ti 1 -- Ti 6                  -0.04        2.85877
              Ti 3 -- Ti 5                   0.34        2.86091
              Ti 2 -- Ti 6                   0.34        2.86091
              Ti 4 -- Ti 6                   0.34        2.86091
              Ti 1 -- Ti 5                   0.34        2.86091
              Ti 6 -- V 2                    0.35        2.87286
              Ti 5 -- V 1                    0.35        2.87286
======================================================================


Writing analysis data to ti64_hcp_phonon_VV.castep_bin

Writing model to ti64_hcp_phonon_VV.check
 
 A BibTeX formatted list of references used in this run has been written to 
 ti64_hcp_phonon_VV.bib
 
Initialisation time =     14.13 s
Calculation time    =  33061.07 s
Finalisation time   =      2.31 s
Total time          =  33077.51 s
Peak Memory Use     = 2945076 kB
 
Overall parallel efficiency rating: Mediocre (53%)
 
Data was distributed by:-
G-vector (6-way); efficiency rating: Mediocre (55%)
k-point (32-way); efficiency rating: Excellent (95%)
