 +-------------------------------------------------+
 |                                                 |
 |      CCC   AA    SSS  TTTTT  EEEEE  PPPP        |
 |     C     A  A  S       T    E      P   P       |
 |     C     AAAA   SS     T    EEE    PPPP        |
 |     C     A  A     S    T    E      P           |
 |      CCC  A  A  SSS     T    EEEEE  P           |
 |                                                 |
 +-------------------------------------------------+
 |                                                 |
 | Welcome to Academic Release CASTEP version 24.1 |
 | Ab Initio Total Energy Program                  |
 |                                                 |
 | Authors:                                        |
 | M. Segall, M. Probert, C. Pickard, P. Hasnip,   |
 | S. Clark, K. Refson, J. R. Yates,               |
 | A. Bartok-Partay, M. Payne                      |
 |                                                 |
 | Contributors:                                   |
 | P. Lindan, P. Haynes, J. White, V. Milman,      |
 | N. Govind, M. Gibson, P. Tulip, V. Cocula,      |
 | B. Montanari, D. Quigley, M. Glover,            |
 | L. Bernasconi, A. Perlov, M. Plummer,           |
 | E. McNellis, J. Meyer, J. Gale, D. Jochym       |
 | J. Aarons, B. Walker, R. Gillen, D. Jones       |
 | T. Green, I. J. Bush, C. J. Armstrong,          |
 | E. J. Higgins, E. L. Brown, M. S. McFly,        |
 | J. Wilkins, B-C. Shih, P. J. P. Byrne,          |
 | R. J. Maurer, J. C. Womack, J. Dziedzic,        |
 | L. LeBlanc, T. K. Stenczel, J. Kermode,         |
 | S. Sturniolo, B. Shi, B. Durham, M. Evans,      |
 | M. J. Smith, A. Tamerus, Z. Hawkhead,           |
 | V. Ravindran, T. Hollins, S. A. Joyce,          |
 | R. T. Strong, A. M. Reilly                      |
 |                                                 |
 | Copyright (c) 2000 - 2023                       |
 |                                                 |
 |     Distributed under license from Cambridge    |
 |     Enterprise for academic use only.           |
 |                                                 |
 | Please cite                                     |
 |                                                 |
 |     "First principles methods using CASTEP"     |
 |                                                 |
 |         Zeitschrift fuer Kristallographie       |
 |           220(5-6) pp. 567-570 (2005)           |
 |                                                 |
 | S. J. Clark, M. D. Segall, C. J. Pickard,       |
 | P. J. Hasnip, M. J. Probert, K. Refson,         |
 | M. C. Payne                                     |
 |                                                 |
 |       in all publications arising from          |
 |              your use of CASTEP                 |
 |                                                 |
 +-------------------------------------------------+
 |                                                 |
 |              http://www.castep.org              |
 |                                                 |
 +-------------------------------------------------+



 Compiled for linux_x86_64_gfortran10 on Tue, 02 May 2023 15:31:46 +0100
 from code version db08e394c+  default  Mon May 1 16:40:39 2023 +0100
 Compiler: GNU Fortran 10.2.0; Optimisation: fast
 Comms   : Open MPI v4.0.5
 MATHLIBS: openblas (LAPACK version 3.9.0)
 FFT Lib : fftw3 version fftw-3.3.8-sse2-avx-avx2-avx2_128
 Fundamental constants values: CODATA 2018

 Run started: Tue, 21 May 2024 17:44:51 +0100
 +-------------------------------------------------+
 |                                                 |
 |  D D D D    F F F F F  P P P P     T T T T T    |
 |  D       D  F          P       P       T        |
 |  D       D  F F F F    P P P P         T        |
 |  D       D  F          P               T        |
 |  D D D D    F          P               T        |
 |                                                 |
 +-------------------------------------------------+
 |                                                 |
 | Welcome to Castep Linear Response (DFPT)        |
 |                                                 |
 | Copyright (c) 2006 - 2023                       |
 |                                                 |
 | Please cite the following publications in all   |
 | work arising from your use of CASTEP LR.        |
 |                                                 |
 | K. Refson, S. J. Clark and P. R. Tulip          |
 | Variational density functional perturbation     |
 | theory for dielectrics and lattice dynamics     |
 | Phys. Rev. B 73(15), 155114 (2006)              |
 +-------------------------------------------------+


 Atomic calculation performed for Ti: 1s2 2s2 2p6 3s2 3p6 3d2 4s2

 Converged in 79 iterations to an ae energy of -23226.658 eV

   ============================================================                
   | Pseudopotential Report - Date of generation 21-05-2024   |                
   ------------------------------------------------------------                
   | Element: Ti Ionic charge: 12.00 Level of theory: PBE     |                
   | Atomic Solver: Koelling-Harmon                           |                
   |                                                          |                
   |               Reference Electronic Structure             |                
   |         Orbital         Occupation         Energy        |                
   |            3s              2.000           -2.302        |                
   |            3p              6.000           -1.428        |                
   |            4s              2.000           -0.164        |                
   |            3d              2.000           -0.157        |                
   |                                                          |                
   |                 Pseudopotential Definition               |                
   |        Beta     l      e      Rc     scheme   norm       |                
   |          1      0   -2.302   1.793     qc      0         |                
   |          2      0   -0.164   1.793     qc      0         |                
   |          3      0    0.250   1.793     qc      0         |                
   |          4      1   -1.428   1.793     qc      0         |                
   |          5      1    0.250   1.793     qc      0         |                
   |          6      2   -0.157   1.793     qc      0         |                
   |          7      2    0.250   1.793     qc      0         |                
   |         loc     3    0.000   1.793     pn      0         |                
   |                                                          |                
   | Augmentation charge Rinner = 1.263                       |                
   | Partial core correction Rc = 1.263                       |                
   ------------------------------------------------------------                
   | "3|1.8|9|10|11|30U:40:31:32(qc=5.5)"                     |                
   ------------------------------------------------------------                
   |      Author: Chris J. Pickard, Cambridge University      |                
   ============================================================                

 Atomic calculation performed for V: 1s2 2s2 2p6 3s2 3p6 3d3 4s2

 Converged in 81 iterations to an ae energy of -25823.733 eV

   ============================================================                
   | Pseudopotential Report - Date of generation 21-05-2024   |                
   ------------------------------------------------------------                
   | Element: V Ionic charge: 13.00 Level of theory: PBE      |                
   | Atomic Solver: Koelling-Harmon                           |                
   |                                                          |                
   |               Reference Electronic Structure             |                
   |         Orbital         Occupation         Energy        |                
   |            3s              2.000           -2.581        |                
   |            3p              6.000           -1.618        |                
   |            3d              3.000           -0.190        |                
   |            4s              2.000           -0.173        |                
   |                                                          |                
   |                 Pseudopotential Definition               |                
   |        Beta     l      e      Rc     scheme   norm       |                
   |          1      0   -2.581   1.803     qc      0         |                
   |          2      0   -0.173   1.803     qc      0         |                
   |          3      0    0.250   1.803     qc      0         |                
   |          4      1   -1.618   1.803     qc      0         |                
   |          5      1    0.250   1.803     qc      0         |                
   |          6      2   -0.190   1.803     qc      0         |                
   |          7      2    0.250   1.803     qc      0         |                
   |         loc     3    0.000   1.803     pn      0         |                
   |                                                          |                
   | Augmentation charge Rinner = 0.600                       |                
   | Partial core correction Rc = 0.600                       |                
   ------------------------------------------------------------                
   | "3|1.8|1.8|0.6|12|14|16|30U:40:31:32(qc=7)"              |                
   ------------------------------------------------------------                
   |      Author: Chris J. Pickard, Cambridge University      |                
   ============================================================                

 Pseudo atomic calculation performed for Ti 3s2 3p6 3d2 4s2

 Converged in 51 iterations to a total energy of -1587.0236 eV

 Pseudo atomic calculation performed for V 3s2 3p6 3d3 4s2

 Converged in 52 iterations to a total energy of -2065.7874 eV
 Calculation parallelised over 192 processes.
 Data is distributed by G-vector(6-way) and k-point(32-way)

 ************************************ Title ************************************
 

 ***************************** General Parameters ******************************
  
 output verbosity                               : normal  (1)
 write checkpoint data to                       : Ti7V_hcp_phonon.check
 type of calculation                            : phonon calculation
 stress calculation                             : on
 density difference calculation                 : off
 electron localisation func (ELF) calculation   : off
 Hirshfeld analysis                             : off
 polarisation (Berry phase) analysis            : off
 molecular orbital projected DOS                : off
 deltaSCF calculation                           : off
 unlimited duration calculation
 timing information                             : on
 memory usage estimate                          : on
 write extra output files                       : on
 write final potential to formatted file        : off
 write final density to formatted file          : off
 write structure in CELL formatted file         : on
 write BibTeX reference list                    : on
 write OTFG pseudopotential files               : on
 write electrostatic potential file             : on
 write bands file                               : on
 checkpoint writing                             : both castep_bin and check files
  
 output         length unit                     : A
 output           mass unit                     : amu
 output           time unit                     : ps
 output         charge unit                     : e
 output           spin unit                     : hbar/2
 output         energy unit                     : eV
 output          force unit                     : eV/A
 output       velocity unit                     : A/ps
 output       pressure unit                     : GPa
 output     inv_length unit                     : 1/A
 output      frequency unit                     : THz
 output force constant unit                     : eV/A**2
 output         volume unit                     : A**3
 output   IR intensity unit                     : (D/A)**2/amu
 output         dipole unit                     : D
 output         efield unit                     : eV/A/e
 output        entropy unit                     : J/mol/K
 output    efield chi2 unit                     : pm/V
  
 wavefunctions paging                           : none
 random number generator seed                   :  174451304
 data distribution                              : k-point only
 optimization strategy                          : maximize speed(+++)

 *********************** Exchange-Correlation Parameters ***********************
  
 using functional                               : Perdew Burke Ernzerhof
 relativistic treatment                         : Koelling-Harmon
 DFT+D: Semi-empirical dispersion correction    : off

 ************************* Pseudopotential Parameters **************************
  
 pseudopotential representation                 : reciprocal space
 <beta|phi> representation                      : reciprocal space
 spin-orbit coupling                            : off

 **************************** Basis Set Parameters *****************************
  
 plane wave basis set cut-off                   :   800.0000   eV
 size of standard grid                          :     2.0000
 size of   fine   grid                          :     4.0000
 size of   fine   gmax                          :    57.9620   1/A
 largest prime factor in FFT                    :          5
 finite basis set correction                    : automatic
 number of sample energies                      :          3
           sample  spacing                      :     5.0000   eV

 **************************** Electronic Parameters ****************************
  
 number of  electrons                           :  97.00    
 net charge of system                           :  0.000    
 treating system as non-spin-polarized
 number of bands                                :         84

 ********************* Electronic Minimization Parameters **********************
  
 Method: Treating system as metallic with density mixing treatment of electrons,
         and number of  SD  steps               :          1
         and number of  CG  steps               :          4
  
 total energy / atom convergence tol.           : 0.1000E-08   eV
 eigen-energy convergence tolerance             : 0.9524E-10   eV
 max force / atom convergence tol.              : ignored
 convergence tolerance window                   :          3   cycles
 max. number of SCF cycles                      :        400
 number of fixed-spin iterations                :         10
 smearing scheme                                : Gaussian
 smearing width                                 : 0.5000E-01   eV
 Fermi energy convergence tolerance             : 0.2721E-13   eV
 periodic dipole correction                     : NONE

 ************************** Density Mixing Parameters **************************
  
 density-mixing scheme                          : Pulay
 max. length of mixing history                  :         20
 charge density mixing amplitude                : 0.8000    
 cut-off energy for mixing                      :  800.0       eV
 charge density mixing g-vector                 :  1.500       1/A

 *********************** Population Analysis Parameters ************************
  
 Population analysis with cutoff                :  3.000       A
 Population analysis output                     : summary and pdos components

 ****************************** Phonon Parameters ******************************
  
 phonon calculation method                      : finite displacement
 finite displacement amplitude                  : 0.1000E-01   A
 fine phonon calculation method                 : interpolation
 non-periodic force constant method             : Weighted cumulant sum
 force constant cutoff scale factor             :     1.0000
 LO/TO splitting term                           : included
 acoustic phonon sum rule                       : correct D(q) in recip-space
 Born effective charges                         : calculated
 Born charge sum rule                           : explicitly enforced
 Raman intensities                              : not calculated
 phonon extra output                            : real-space force constants
 phonon k-points                                : use reduced set
 phonon DOS                                     : not calculated
 no timed backups
 band convergence tolerance                     : 0.1000E-08   eV

 ******************************* Developer Code ********************************
  
 PARALLEL: kpoints=32 : ENDPARALLEL
 no_improve_wvfn

 *******************************************************************************
  

                           -------------------------------
                                      Unit Cell
                           -------------------------------
        Real Lattice(A)                      Reciprocal Lattice(1/A)
     2.9030000    -5.0281435     0.0000000        1.082188306  -0.624801710   0.000000000
     2.9030000     5.0281435     0.0000000        1.082188306   0.624801710   0.000000000
     0.0000000     0.0000000     4.6300000        0.000000000   0.000000000   1.357059462

                       Lattice parameters(A)       Cell Angles
                    a =      5.806000          alpha =   90.000000
                    b =      5.806000          beta  =   90.000000
                    c =      4.630000          gamma =  120.000000

                       Current cell volume =           135.165447       A**3
                                   density =             2.855837   AMU/A**3
                                           =             4.742229     g/cm^3

                           -------------------------------
                                     Cell Contents
                           -------------------------------
                         Total number of ions in cell =    8
                      Total number of species in cell =    2
                        Max number of any one species =    7

            xxxxxxxxxxxxxxxxxxxxxxxxxxxxxxxxxxxxxxxxxxxxxxxxxxxxxxxxxxxx
            x  Element    Atom        Fractional coordinates of atoms  x
            x            Number           u          v          w      x
            x----------------------------------------------------------x
            x  Ti           1         0.329805   0.170195   0.750000   x 
            x  Ti           2         0.164978   0.832489   0.250000   x 
            x  Ti           3         0.329805   0.659609   0.750000   x 
            x  Ti           4         0.667511   0.335022   0.250000   x 
            x  Ti           5         0.840391   0.170195   0.750000   x 
            x  Ti           6         0.667510   0.832489   0.250000   x 
            x  Ti           7         0.833333   0.666666   0.750000   x 
            x  V            1         0.166667   0.333333   0.250000   x 
            xxxxxxxxxxxxxxxxxxxxxxxxxxxxxxxxxxxxxxxxxxxxxxxxxxxxxxxxxxxx


                         No user defined ionic velocities

                           -------------------------------
                                   Details of Species
                           -------------------------------

                               Mass of species in AMU
                                    Ti   47.8670000
                                    V   50.9415000

                          Electric Quadrupole Moment (Barn)
                                    Ti    0.3020000 Isotope 47
                                    V   -0.0520000 Isotope 51

                          Files used for pseudopotentials:
                                    Ti 3|1.8|9|10|11|30U:40:31:32(qc=5.5)
                                    V 3|1.8|1.8|0.6|12|14|16|30U:40:31:32(qc=7)

                           -------------------------------
                              k-Points For BZ Sampling
                           -------------------------------
                       MP grid size for SCF calculation is 10 10 11
                            with an offset of   0.000  0.000  0.000
                       Number of kpoints used =           550

                           -------------------------------
                               Symmetry and Constraints
                           -------------------------------

                      Maximum deviation from symmetry =  0.00000         ANG

                      Number of symmetry operations   =           1
                      Number of ionic constraints     =           3
                      Point group of crystal =     1: C1, 1, 1
                      Space group of crystal =   187: P-6m2, P -6 2

             Set iprint > 1 for details on symmetry rotations/translations

                         Centre of mass is constrained
             Set iprint > 1 for details of linear ionic constraints

                         Number of cell constraints= 0
                         Cell constraints are:  1 2 3 4 5 6

                         External pressure/stress (GPa)
                          0.00000   0.00000   0.00000
                                    0.00000   0.00000
                                              0.00000
 
+---------------- MEMORY AND SCRATCH DISK ESTIMATES PER PROCESS --------------+
|                                                     Memory          Disk    |
| Baseline code, static data and system overhead      591.0 MB         0.0 MB |
| BLAS internal memory storage                          0.0 MB         0.0 MB |
| Model and support data                              758.0 MB         0.0 MB |
| Electronic energy minimisation requirements          72.4 MB         0.0 MB |
| Force calculation requirements                       26.9 MB         0.0 MB |
| Stress calculation requirements                      29.6 MB         0.0 MB |
|                                               ----------------------------- |
| Approx. total storage required per process         1421.4 MB         0.0 MB |
|                                                                             |
| Requirements will fluctuate during execution and may exceed these estimates |
+-----------------------------------------------------------------------------+
Calculating finite basis set correction with  3 cut-off energies.
Calculating total energy with cut-off of  790.000 eV.
------------------------------------------------------------------------ <-- SCF
SCF loop      Energy           Fermi           Energy gain       Timer   <-- SCF
                               energy          per atom          (sec)   <-- SCF
------------------------------------------------------------------------ <-- SCF
Initial  -1.20524992E+004  0.00000000E+000                        18.36  <-- SCF
      1  -1.28698054E+004  1.14551876E+001   1.02163268E+002      28.45  <-- SCF
      2  -1.32136883E+004  9.92205305E+000   4.29853668E+001      35.65  <-- SCF
      3  -1.32320624E+004  9.58568607E+000   2.29675610E+000      43.07  <-- SCF
      4  -1.32315302E+004  8.68268502E+000  -6.65252367E-002      52.84  <-- SCF
      5  -1.32324368E+004  8.86311803E+000   1.13328945E-001      62.83  <-- SCF
      6  -1.32308392E+004  9.07747798E+000  -1.99695855E-001      72.65  <-- SCF
      7  -1.32307622E+004  9.05766225E+000  -9.63350464E-003      82.66  <-- SCF
      8  -1.32307490E+004  9.03677351E+000  -1.64686513E-003      92.56  <-- SCF
      9  -1.32307440E+004  9.03582592E+000  -6.17383709E-004     102.48  <-- SCF
     10  -1.32307437E+004  9.03549565E+000  -4.24731668E-005     113.01  <-- SCF
     11  -1.32307437E+004  9.03497122E+000   4.10172139E-006     123.27  <-- SCF
     12  -1.32307437E+004  9.03471654E+000  -5.09017398E-006     132.86  <-- SCF
     13  -1.32307437E+004  9.03474756E+000   1.95040908E-007     142.94  <-- SCF
     14  -1.32307437E+004  9.03476290E+000  -2.57188925E-007     152.44  <-- SCF
     15  -1.32307437E+004  9.03480087E+000  -4.61290918E-009     161.65  <-- SCF
     16  -1.32307437E+004  9.03480156E+000   2.63340695E-010     168.57  <-- SCF
     17  -1.32307437E+004  9.03480155E+000  -1.64539597E-010     175.39  <-- SCF
------------------------------------------------------------------------ <-- SCF
 
Final energy, E             =  -13230.72794290     eV
Final free energy (E-TS)    =  -13230.74369264     eV
(energies not corrected for finite basis set)
 
NB est. 0K energy (E-0.5TS)      =  -13230.73581777     eV
 
Calculating total energy with cut-off of  795.000 eV.
------------------------------------------------------------------------ <-- SCF
SCF loop      Energy           Fermi           Energy gain       Timer   <-- SCF
                               energy          per atom          (sec)   <-- SCF
------------------------------------------------------------------------ <-- SCF
Initial  -1.32307279E+004  0.00000000E+000                       180.69  <-- SCF
      1  -1.32307438E+004  9.03479518E+000   1.98635873E-003     188.19  <-- SCF
      2  -1.32307438E+004  9.03479518E+000   3.06225399E-009     197.00  <-- SCF
      3  -1.32307438E+004  9.03479144E+000   1.16668435E-008     205.33  <-- SCF
      4  -1.32307438E+004  9.03480699E+000  -7.99148136E-009     213.37  <-- SCF
      5  -1.32307438E+004  9.03479993E+000  -3.25018876E-010     220.09  <-- SCF
      6  -1.32307438E+004  9.03479530E+000   4.52435556E-011     226.81  <-- SCF
------------------------------------------------------------------------ <-- SCF
 
Final energy, E             =  -13230.72808406     eV
Final free energy (E-TS)    =  -13230.74383382     eV
(energies not corrected for finite basis set)
 
NB est. 0K energy (E-0.5TS)      =  -13230.73595894     eV
 
Calculating total energy with cut-off of  800.000 eV.
------------------------------------------------------------------------ <-- SCF
SCF loop      Energy           Fermi           Energy gain       Timer   <-- SCF
                               energy          per atom          (sec)   <-- SCF
------------------------------------------------------------------------ <-- SCF
Initial  -1.32307281E+004  0.00000000E+000                       232.02  <-- SCF
      1  -1.32307440E+004  9.03479252E+000   1.98595705E-003     239.53  <-- SCF
      2  -1.32307440E+004  9.03479252E+000   2.80181352E-009     248.11  <-- SCF
      3  -1.32307440E+004  9.03480828E+000   9.99681496E-008     257.72  <-- SCF
      4  -1.32307440E+004  9.03479601E+000  -1.00069464E-007     266.97  <-- SCF
      5  -1.32307440E+004  9.03479694E+000   4.11445668E-010     274.41  <-- SCF
      6  -1.32307440E+004  9.03479090E+000   8.33332156E-011     281.03  <-- SCF
------------------------------------------------------------------------ <-- SCF
 
Final energy, E             =  -13230.72822206     eV
Final free energy (E-TS)    =  -13230.74397174     eV
(energies not corrected for finite basis set)
 
NB est. 0K energy (E-0.5TS)      =  -13230.73609690     eV
 
 For future reference: finite basis dEtot/dlog(Ecut) =      -0.022100eV
 Total energy corrected for finite basis set =  -13230.743971 eV
 ??????????????????????????????????????????????????????????????????????????????? 
     WARNING: Calculation of Born effective charges and IR intensities is not    
              implemented for ultrasoft pseudopotentials.                        
              Parameter CALCULATE_BORN_CHARGES changed to .FALSE.                
 ??????????????????????????????????????????????????????????????????????????????? 
 ??????????????????????????????????????????????????????????????????????????????? 
     WARNING: Calculation of LO/TO splitting is not implemented for ultrasoft    
              pseudopotentials.                                                  
              Parameter PHONON_CALC_LO_TO_SPLITTING changed to .FALSE.           
 ??????????????????????????????????????????????????????????????????????????????? 

 Phonon supercell    1 (of 7)      [  1  0  0;  0  1  0;  0  0  2]:     286.84s
 -------------------------------------------------------------------------------
  Parallel strategy changed for perturbation using 300 k-points
  Data is distributed by G-vector(6-way) and k-point(32-way) and band(1-way)
  +---------------- MEMORY AND SCRATCH DISK ESTIMATES PER PROCESS --------------+
  |                                                     Memory          Disk    |
  | Baseline code, static data and system overhead      591.0 MB         0.0 MB |
  | BLAS internal memory storage                          0.0 MB         0.0 MB |
  | Model and support data                              758.0 MB         0.0 MB |
  | Finite displacement phonon requirements             258.6 MB         0.0 MB |
  |                                               ----------------------------- |
  | Approx. total storage required per process         1607.6 MB         0.0 MB |
  |                                                                             |
  | Requirements will fluctuate during execution and may exceed these estimates |
  +-----------------------------------------------------------------------------+
 Perturbation    1 (of   24): Ti    1 X at q=( 0.000, 0.000, 0.000):    816.89s
  Parallel strategy changed for perturbation using 300 k-points
  Data is distributed by G-vector(16-way) and k-point(12-way) and band(1-way)
 Perturbation    2 (of   24): Ti    1 Y at q=( 0.000, 0.000, 0.000):   1375.81s
 Perturbation    3 (of   24): Ti    1 Z at q=( 0.000, 0.000, 0.000):   1909.78s
 Perturbation    4 (of   24): Ti    2 X at q=( 0.000, 0.000, 0.000):   2466.32s
 Perturbation    5 (of   24): Ti    2 Y at q=( 0.000, 0.000, 0.000):   3022.16s
 Perturbation    6 (of   24): Ti    2 Z at q=( 0.000, 0.000, 0.000):   3564.04s
 Perturbation    7 (of   24): Ti    3 X at q=( 0.000, 0.000, 0.000):   4119.26s
 Perturbation    8 (of   24): Ti    3 Y at q=( 0.000, 0.000, 0.000):   4639.86s
 Perturbation    9 (of   24): Ti    3 Z at q=( 0.000, 0.000, 0.000):   5175.81s
 Perturbation   10 (of   24): Ti    4 X at q=( 0.000, 0.000, 0.000):   5732.98s
 Perturbation   11 (of   24): Ti    4 Y at q=( 0.000, 0.000, 0.000):   6290.32s
 Perturbation   12 (of   24): Ti    4 Z at q=( 0.000, 0.000, 0.000):   6832.15s
 Perturbation   13 (of   24): Ti    5 X at q=( 0.000, 0.000, 0.000):   7387.09s
 Perturbation   14 (of   24): Ti    5 Y at q=( 0.000, 0.000, 0.000):   7907.01s
 Perturbation   15 (of   24): Ti    5 Z at q=( 0.000, 0.000, 0.000):   8443.70s
 Perturbation   16 (of   24): Ti    6 X at q=( 0.000, 0.000, 0.000):   9000.77s
 Perturbation   17 (of   24): Ti    6 Y at q=( 0.000, 0.000, 0.000):   9536.10s
 Perturbation   18 (of   24): Ti    6 Z at q=( 0.000, 0.000, 0.000):  10085.47s
 Perturbation   19 (of   24): Ti    7 X at q=( 0.000, 0.000, 0.000):  10642.78s
 Perturbation   20 (of   24): Ti    7 Y at q=( 0.000, 0.000, 0.000):  11179.31s
 Perturbation   21 (of   24): Ti    7 Z at q=( 0.000, 0.000, 0.000):  11712.99s
 Perturbation   22 (of   24): V     1 X at q=( 0.000, 0.000, 0.000):  12271.50s
 Perturbation   23 (of   24): V     1 Y at q=( 0.000, 0.000, 0.000):  12816.92s
 Perturbation   24 (of   24): V     1 Z at q=( 0.000, 0.000, 0.000):  13336.62s

 Phonon supercell    2 (of 7)      [  0  0  1;  1  0  0;  1  2  0]:   13874.62s
 -------------------------------------------------------------------------------
  Parallel strategy changed for perturbation using 248 k-points
  Data is distributed by G-vector(6-way) and k-point(32-way) and band(1-way)

Writing analysis data to Ti7V_hcp_phonon.castep_bin

Writing model to Ti7V_hcp_phonon.check
 Perturbation    1 (of   24): Ti    1 X at q=( 0.000, 0.000, 0.000):  14315.45s
  Parallel strategy changed for perturbation using 248 k-points
  Data is distributed by G-vector(24-way) and k-point(8-way) and band(1-way)
 Perturbation    2 (of   24): Ti    1 Y at q=( 0.000, 0.000, 0.000):  14884.16s
 Perturbation    3 (of   24): Ti    1 Z at q=( 0.000, 0.000, 0.000):  15419.27s
 Perturbation    4 (of   24): Ti    2 X at q=( 0.000, 0.000, 0.000):  15947.19s
 Perturbation    5 (of   24): Ti    2 Y at q=( 0.000, 0.000, 0.000):  16499.29s
 Perturbation    6 (of   24): Ti    2 Z at q=( 0.000, 0.000, 0.000):  17036.59s
 Perturbation    7 (of   24): Ti    3 X at q=( 0.000, 0.000, 0.000):  17568.30s
 Perturbation    8 (of   24): Ti    3 Y at q=( 0.000, 0.000, 0.000):  18120.43s
 Perturbation    9 (of   24): Ti    3 Z at q=( 0.000, 0.000, 0.000):  18643.02s
 Perturbation   10 (of   24): Ti    4 X at q=( 0.000, 0.000, 0.000):  19158.86s
 Perturbation   11 (of   24): Ti    4 Y at q=( 0.000, 0.000, 0.000):  19709.56s
 Perturbation   12 (of   24): Ti    4 Z at q=( 0.000, 0.000, 0.000):  20248.14s
 Perturbation   13 (of   24): Ti    5 X at q=( 0.000, 0.000, 0.000):  20778.80s
 Perturbation   14 (of   24): Ti    5 Y at q=( 0.000, 0.000, 0.000):  21314.97s
 Perturbation   15 (of   24): Ti    5 Z at q=( 0.000, 0.000, 0.000):  21866.76s
 Perturbation   16 (of   24): Ti    6 X at q=( 0.000, 0.000, 0.000):  22394.39s
 Perturbation   17 (of   24): Ti    6 Y at q=( 0.000, 0.000, 0.000):  22933.26s
 Perturbation   18 (of   24): Ti    6 Z at q=( 0.000, 0.000, 0.000):  23482.66s
 Perturbation   19 (of   24): Ti    7 X at q=( 0.000, 0.000, 0.000):  24012.65s
 Perturbation   20 (of   24): Ti    7 Y at q=( 0.000, 0.000, 0.000):  24550.90s
 Perturbation   21 (of   24): Ti    7 Z at q=( 0.000, 0.000, 0.000):  25090.19s
 Perturbation   22 (of   24): V     1 X at q=( 0.000, 0.000, 0.000):  25615.22s
 Perturbation   23 (of   24): V     1 Y at q=( 0.000, 0.000, 0.000):  26163.77s
 Perturbation   24 (of   24): V     1 Z at q=( 0.000, 0.000, 0.000):  26715.81s

 Phonon supercell    3 (of 7)      [ -1  0  0;  0  1  1;  0  1 -1]:   27220.37s
 -------------------------------------------------------------------------------
  Parallel strategy changed for perturbation using 320 k-points
  Data is distributed by G-vector(6-way) and k-point(32-way) and band(1-way)
  +---------------- MEMORY AND SCRATCH DISK ESTIMATES PER PROCESS --------------+
  |                                                     Memory          Disk    |
  | Baseline code, static data and system overhead      591.0 MB         0.0 MB |
  | BLAS internal memory storage                          0.0 MB         0.0 MB |
  | Model and support data                              758.0 MB         0.0 MB |
  | Finite displacement phonon requirements             263.6 MB         0.0 MB |
  |                                               ----------------------------- |
  | Approx. total storage required per process         1612.6 MB         0.0 MB |
  |                                                                             |
  | Requirements will fluctuate during execution and may exceed these estimates |
  +-----------------------------------------------------------------------------+

Writing analysis data to Ti7V_hcp_phonon.castep_bin

Writing model to Ti7V_hcp_phonon.check
 Perturbation    1 (of   24): Ti    1 X at q=( 0.000, 0.000, 0.000):  27811.18s
  Parallel strategy changed for perturbation using 320 k-points
  Data is distributed by G-vector(3-way) and k-point(64-way) and band(1-way)
  +---------------- MEMORY AND SCRATCH DISK ESTIMATES PER PROCESS --------------+
  |                                                     Memory          Disk    |
  | Baseline code, static data and system overhead      591.0 MB         0.0 MB |
  | BLAS internal memory storage                          0.0 MB         0.0 MB |
  | Model and support data                              758.0 MB         0.0 MB |
  | Finite displacement phonon requirements             283.6 MB         0.0 MB |
  |                                               ----------------------------- |
  | Approx. total storage required per process         1632.6 MB         0.0 MB |
  |                                                                             |
  | Requirements will fluctuate during execution and may exceed these estimates |
  +-----------------------------------------------------------------------------+
 Perturbation    2 (of   24): Ti    1 Y at q=( 0.000, 0.000, 0.000):  28968.68s
 Perturbation    3 (of   24): Ti    1 Z at q=( 0.000, 0.000, 0.000):  30091.75s
 Perturbation    4 (of   24): Ti    2 X at q=( 0.000, 0.000, 0.000):  31150.35s
 Perturbation    5 (of   24): Ti    2 Y at q=( 0.000, 0.000, 0.000):  32327.65s
 Perturbation    6 (of   24): Ti    2 Z at q=( 0.000, 0.000, 0.000):  33476.72s
 Perturbation    7 (of   24): Ti    3 X at q=( 0.000, 0.000, 0.000):  34641.14s
 Perturbation    8 (of   24): Ti    3 Y at q=( 0.000, 0.000, 0.000):  35737.22s
 Perturbation    9 (of   24): Ti    3 Z at q=( 0.000, 0.000, 0.000):  36799.05s
 Perturbation   10 (of   24): Ti    4 X at q=( 0.000, 0.000, 0.000):  37968.10s
 Perturbation   11 (of   24): Ti    4 Y at q=( 0.000, 0.000, 0.000):  39112.01s
 Perturbation   12 (of   24): Ti    4 Z at q=( 0.000, 0.000, 0.000):  40252.74s
 Perturbation   13 (of   24): Ti    5 X at q=( 0.000, 0.000, 0.000):  41377.50s
 Perturbation   14 (of   24): Ti    5 Y at q=( 0.000, 0.000, 0.000):  42477.17s
 Perturbation   15 (of   24): Ti    5 Z at q=( 0.000, 0.000, 0.000):  43612.96s
 Perturbation   16 (of   24): Ti    6 X at q=( 0.000, 0.000, 0.000):  44692.02s
 Perturbation   17 (of   24): Ti    6 Y at q=( 0.000, 0.000, 0.000):  45855.49s
 Perturbation   18 (of   24): Ti    6 Z at q=( 0.000, 0.000, 0.000):  47037.92s
 Perturbation   19 (of   24): Ti    7 X at q=( 0.000, 0.000, 0.000):  48129.71s
 Perturbation   20 (of   24): Ti    7 Y at q=( 0.000, 0.000, 0.000):  49309.62s
 Perturbation   21 (of   24): Ti    7 Z at q=( 0.000, 0.000, 0.000):  50394.10s
 Perturbation   22 (of   24): V     1 X at q=( 0.000, 0.000, 0.000):  51616.31s
 Perturbation   23 (of   24): V     1 Y at q=( 0.000, 0.000, 0.000):  52769.07s
 Perturbation   24 (of   24): V     1 Z at q=( 0.000, 0.000, 0.000):  53979.34s

 Phonon supercell    4 (of 7)      [  0  0 -1;  0 -1  0; -2 -1  0]:   55134.70s
 -------------------------------------------------------------------------------
  Parallel strategy changed for perturbation using 248 k-points
  Data is distributed by G-vector(6-way) and k-point(32-way) and band(1-way)

Writing analysis data to Ti7V_hcp_phonon.castep_bin

Writing model to Ti7V_hcp_phonon.check
 Perturbation    1 (of   24): Ti    1 X at q=( 0.000, 0.000, 0.000):  55578.81s
  Parallel strategy changed for perturbation using 248 k-points
  Data is distributed by G-vector(24-way) and k-point(8-way) and band(1-way)
 Perturbation    2 (of   24): Ti    1 Y at q=( 0.000, 0.000, 0.000):  56147.03s
 Perturbation    3 (of   24): Ti    1 Z at q=( 0.000, 0.000, 0.000):  56683.69s
 Perturbation    4 (of   24): Ti    2 X at q=( 0.000, 0.000, 0.000):  57211.50s
 Perturbation    5 (of   24): Ti    2 Y at q=( 0.000, 0.000, 0.000):  57765.51s
 Perturbation    6 (of   24): Ti    2 Z at q=( 0.000, 0.000, 0.000):  58304.52s
 Perturbation    7 (of   24): Ti    3 X at q=( 0.000, 0.000, 0.000):  58836.30s
 Perturbation    8 (of   24): Ti    3 Y at q=( 0.000, 0.000, 0.000):  59373.47s
 Perturbation    9 (of   24): Ti    3 Z at q=( 0.000, 0.000, 0.000):  59925.44s
 Perturbation   10 (of   24): Ti    4 X at q=( 0.000, 0.000, 0.000):  60454.25s
 Perturbation   11 (of   24): Ti    4 Y at q=( 0.000, 0.000, 0.000):  61008.37s
 Perturbation   12 (of   24): Ti    4 Z at q=( 0.000, 0.000, 0.000):  61548.73s
 Perturbation   13 (of   24): Ti    5 X at q=( 0.000, 0.000, 0.000):  62080.59s
 Perturbation   14 (of   24): Ti    5 Y at q=( 0.000, 0.000, 0.000):  62631.27s
 Perturbation   15 (of   24): Ti    5 Z at q=( 0.000, 0.000, 0.000):  63170.03s
 Perturbation   16 (of   24): Ti    6 X at q=( 0.000, 0.000, 0.000):  63685.27s
 Perturbation   17 (of   24): Ti    6 Y at q=( 0.000, 0.000, 0.000):  64225.97s
 Perturbation   18 (of   24): Ti    6 Z at q=( 0.000, 0.000, 0.000):  64776.10s
 Perturbation   19 (of   24): Ti    7 X at q=( 0.000, 0.000, 0.000):  65306.34s
 Perturbation   20 (of   24): Ti    7 Y at q=( 0.000, 0.000, 0.000):  65845.95s
 Perturbation   21 (of   24): Ti    7 Z at q=( 0.000, 0.000, 0.000):  66386.41s
 Perturbation   22 (of   24): V     1 X at q=( 0.000, 0.000, 0.000):  66912.07s
 Perturbation   23 (of   24): V     1 Y at q=( 0.000, 0.000, 0.000):  67458.05s
 Perturbation   24 (of   24): V     1 Z at q=( 0.000, 0.000, 0.000):  68011.08s

 Phonon supercell    5 (of 7)      [  0  1  0; -1  0 -1; -1  0  1]:   68517.24s
 -------------------------------------------------------------------------------
  Parallel strategy changed for perturbation using 320 k-points
  Data is distributed by G-vector(6-way) and k-point(32-way) and band(1-way)

Writing analysis data to Ti7V_hcp_phonon.castep_bin

Writing model to Ti7V_hcp_phonon.check
 Perturbation    1 (of   24): Ti    1 X at q=( 0.000, 0.000, 0.000):  69105.22s
  Parallel strategy changed for perturbation using 320 k-points
  Data is distributed by G-vector(3-way) and k-point(64-way) and band(1-way)
 Perturbation    2 (of   24): Ti    1 Y at q=( 0.000, 0.000, 0.000):  70294.50s
 Perturbation    3 (of   24): Ti    1 Z at q=( 0.000, 0.000, 0.000):  71427.83s
 Perturbation    4 (of   24): Ti    2 X at q=( 0.000, 0.000, 0.000):  72495.22s
 Perturbation    5 (of   24): Ti    2 Y at q=( 0.000, 0.000, 0.000):  73689.97s
 Perturbation    6 (of   24): Ti    2 Z at q=( 0.000, 0.000, 0.000):  74849.43s
 Perturbation    7 (of   24): Ti    3 X at q=( 0.000, 0.000, 0.000):  76000.14s
 Perturbation    8 (of   24): Ti    3 Y at q=( 0.000, 0.000, 0.000):  77082.32s
 Perturbation    9 (of   24): Ti    3 Z at q=( 0.000, 0.000, 0.000):  78209.73s
 Perturbation   10 (of   24): Ti    4 X at q=( 0.000, 0.000, 0.000):  79290.40s
 Perturbation   11 (of   24): Ti    4 Y at q=( 0.000, 0.000, 0.000):  80514.64s
 Perturbation   12 (of   24): Ti    4 Z at q=( 0.000, 0.000, 0.000):  81704.38s
 Perturbation   13 (of   24): Ti    5 X at q=( 0.000, 0.000, 0.000):  82904.94s
 Perturbation   14 (of   24): Ti    5 Y at q=( 0.000, 0.000, 0.000):  84035.38s
 Perturbation   15 (of   24): Ti    5 Z at q=( 0.000, 0.000, 0.000):  85141.20s
 Perturbation   16 (of   24): Ti    6 X at q=( 0.000, 0.000, 0.000):  86357.75s
 Perturbation   17 (of   24): Ti    6 Y at q=( 0.000, 0.000, 0.000):  87557.75s
 Perturbation   18 (of   24): Ti    6 Z at q=( 0.000, 0.000, 0.000):  88769.53s
 Perturbation   19 (of   24): Ti    7 X at q=( 0.000, 0.000, 0.000):  89907.10s
 Perturbation   20 (of   24): Ti    7 Y at q=( 0.000, 0.000, 0.000):  91023.02s
 Perturbation   21 (of   24): Ti    7 Z at q=( 0.000, 0.000, 0.000):  92131.38s
 Perturbation   22 (of   24): V     1 X at q=( 0.000, 0.000, 0.000):  93351.53s
 Perturbation   23 (of   24): V     1 Y at q=( 0.000, 0.000, 0.000):  94526.08s
 Perturbation   24 (of   24): V     1 Z at q=( 0.000, 0.000, 0.000):  95748.32s

Writing analysis data to Ti7V_hcp_phonon.castep_bin

Writing model to Ti7V_hcp_phonon.check

 Phonon supercell    6 (of 7)      [  0  0  1;  1  1  0; -1  1  0]:   96924.33s
 -------------------------------------------------------------------------------
  Parallel strategy changed for perturbation using 248 k-points
  Data is distributed by G-vector(6-way) and k-point(32-way) and band(1-way)
 Perturbation    1 (of   24): Ti    1 X at q=( 0.000, 0.000, 0.000):  97359.52s
  Parallel strategy changed for perturbation using 248 k-points
  Data is distributed by G-vector(24-way) and k-point(8-way) and band(1-way)
 Perturbation    2 (of   24): Ti    1 Y at q=( 0.000, 0.000, 0.000):  97916.87s
 Perturbation    3 (of   24): Ti    1 Z at q=( 0.000, 0.000, 0.000):  98469.57s
 Perturbation    4 (of   24): Ti    2 X at q=( 0.000, 0.000, 0.000):  98983.80s
 Perturbation    5 (of   24): Ti    2 Y at q=( 0.000, 0.000, 0.000):  99534.32s
 Perturbation    6 (of   24): Ti    2 Z at q=( 0.000, 0.000, 0.000): 100086.98s
 Perturbation    7 (of   24): Ti    3 X at q=( 0.000, 0.000, 0.000): 100617.86s
 Perturbation    8 (of   24): Ti    3 Y at q=( 0.000, 0.000, 0.000): 101154.83s
 Perturbation    9 (of   24): Ti    3 Z at q=( 0.000, 0.000, 0.000): 101691.39s
 Perturbation   10 (of   24): Ti    4 X at q=( 0.000, 0.000, 0.000): 102220.38s
 Perturbation   11 (of   24): Ti    4 Y at q=( 0.000, 0.000, 0.000): 102773.56s
 Perturbation   12 (of   24): Ti    4 Z at q=( 0.000, 0.000, 0.000): 103326.49s
 Perturbation   13 (of   24): Ti    5 X at q=( 0.000, 0.000, 0.000): 103857.76s
 Perturbation   14 (of   24): Ti    5 Y at q=( 0.000, 0.000, 0.000): 104393.22s
 Perturbation   15 (of   24): Ti    5 Z at q=( 0.000, 0.000, 0.000): 104945.49s
 Perturbation   16 (of   24): Ti    6 X at q=( 0.000, 0.000, 0.000): 105474.60s
 Perturbation   17 (of   24): Ti    6 Y at q=( 0.000, 0.000, 0.000): 106010.82s
 Perturbation   18 (of   24): Ti    6 Z at q=( 0.000, 0.000, 0.000): 106563.97s
 Perturbation   19 (of   24): Ti    7 X at q=( 0.000, 0.000, 0.000): 107096.80s
 Perturbation   20 (of   24): Ti    7 Y at q=( 0.000, 0.000, 0.000): 107636.93s
 Perturbation   21 (of   24): Ti    7 Z at q=( 0.000, 0.000, 0.000): 108192.91s
 Perturbation   22 (of   24): V     1 X at q=( 0.000, 0.000, 0.000): 108722.54s
 Perturbation   23 (of   24): V     1 Y at q=( 0.000, 0.000, 0.000): 109270.57s
 Perturbation   24 (of   24): V     1 Z at q=( 0.000, 0.000, 0.000): 109820.27s

 Phonon supercell    7 (of 7)      [  1  1  0;  0  1 -1;  0  1  1]:  110325.71s
 -------------------------------------------------------------------------------
  Parallel strategy changed for perturbation using 320 k-points
  Data is distributed by G-vector(6-way) and k-point(32-way) and band(1-way)

Writing analysis data to Ti7V_hcp_phonon.castep_bin

Writing model to Ti7V_hcp_phonon.check
 Perturbation    1 (of   24): Ti    1 X at q=( 0.000, 0.000, 0.000): 110918.40s
  Parallel strategy changed for perturbation using 320 k-points
  Data is distributed by G-vector(3-way) and k-point(64-way) and band(1-way)
 Perturbation    2 (of   24): Ti    1 Y at q=( 0.000, 0.000, 0.000): 112103.26s
 Perturbation    3 (of   24): Ti    1 Z at q=( 0.000, 0.000, 0.000): 113227.75s
 Perturbation    4 (of   24): Ti    2 X at q=( 0.000, 0.000, 0.000): 114400.81s
 Perturbation    5 (of   24): Ti    2 Y at q=( 0.000, 0.000, 0.000): 115584.96s
 Perturbation    6 (of   24): Ti    2 Z at q=( 0.000, 0.000, 0.000): 116778.88s
 Perturbation    7 (of   24): Ti    3 X at q=( 0.000, 0.000, 0.000): 117961.41s
 Perturbation    8 (of   24): Ti    3 Y at q=( 0.000, 0.000, 0.000): 119070.10s
 Perturbation    9 (of   24): Ti    3 Z at q=( 0.000, 0.000, 0.000): 120135.21s
 Perturbation   10 (of   24): Ti    4 X at q=( 0.000, 0.000, 0.000): 121214.85s
 Perturbation   11 (of   24): Ti    4 Y at q=( 0.000, 0.000, 0.000): 122363.65s
 Perturbation   12 (of   24): Ti    4 Z at q=( 0.000, 0.000, 0.000): 123563.85s
 Perturbation   13 (of   24): Ti    5 X at q=( 0.000, 0.000, 0.000): 124754.63s
 Perturbation   14 (of   24): Ti    5 Y at q=( 0.000, 0.000, 0.000): 125879.16s
 Perturbation   15 (of   24): Ti    5 Z at q=( 0.000, 0.000, 0.000): 126971.09s
 Perturbation   16 (of   24): Ti    6 X at q=( 0.000, 0.000, 0.000): 128072.48s
 Perturbation   17 (of   24): Ti    6 Y at q=( 0.000, 0.000, 0.000): 129230.18s
 Perturbation   18 (of   24): Ti    6 Z at q=( 0.000, 0.000, 0.000): 130410.28s
 Perturbation   19 (of   24): Ti    7 X at q=( 0.000, 0.000, 0.000): 131606.95s
 Perturbation   20 (of   24): Ti    7 Y at q=( 0.000, 0.000, 0.000): 132764.13s
 Perturbation   21 (of   24): Ti    7 Z at q=( 0.000, 0.000, 0.000): 133851.50s
 Perturbation   22 (of   24): V     1 X at q=( 0.000, 0.000, 0.000): 135056.14s
 Perturbation   23 (of   24): V     1 Y at q=( 0.000, 0.000, 0.000): 136238.84s
 Perturbation   24 (of   24): V     1 Z at q=( 0.000, 0.000, 0.000): 137384.45s
 %%%%%%%%%%%%%%%%%%%%%%%%%%%%%%%%%%%%%%%%%%%%%%%%%%%%%%%%%%%%%%%%%%%%%%%%%%%%%%%%%%%%%%%%%%%%%%%%%%%%%%%%%%%%%%%%%%%
            Force Constant matrix
 Ion XYZ  L          part  (eV/A**2)
 Supercell   1 at (0,0,0)        0.000 A                             
   1   1          6.396047          0.000042         -0.000018         -0.052764         -0.015231          0.050297
                 -0.429226         -1.317507          0.000032         -0.633284          0.472708          0.880470
                 -0.360925         -0.222865          0.000008          0.175168          0.050187         -0.237476
                 -1.457656          0.675224         -0.000004          0.265939         -0.000295         -0.001265
   1   2          0.000042          5.675901          0.000039         -0.044120          0.021185          0.091520
                 -0.010130         -1.193378          0.000042          0.422295         -0.066265         -0.384215
                  0.990698         -0.801956          0.000086          0.030143          0.140340         -0.059191
                 -0.545811         -0.191631         -0.000036         -0.000054         -0.763117          0.347879
   1   3         -0.000018          0.000039          5.582271          0.080858          0.141794          0.012790
                 -0.000019          0.000055         -0.077051          0.776150         -0.413395         -0.806429
                 -0.000020         -0.000167         -0.139692         -0.138883         -0.110905          0.237884
                  0.000582         -0.000023         -0.157021          0.001206          0.270786         -0.898432
   2   1         -0.052764         -0.044120          0.080858          5.678418         -0.875438          0.000006
                  0.179525         -0.004402         -0.031581         -0.036222         -0.045301         -0.000009
                  0.003247          0.016783          0.009534         -0.333818          1.198013          0.000005
                 -0.011893          0.013120         -0.040180         -0.258369         -0.710762         -0.000021
   2   2         -0.015231          0.021185          0.141794         -0.875438          4.673199          0.000000
                  0.047024         -0.878183          0.879571          0.009781         -0.082789          0.000000
                  0.016801          0.021745         -0.005402         -0.154485         -0.935299          0.000000
                 -0.011081         -0.038592          0.073230          0.602618         -0.264319          0.000000
   2   3          0.050297          0.091520          0.012790          0.000006          0.000000          6.147766
                 -0.107133          0.954842         -0.806781         -0.000034         -0.000063         -0.061119
                 -0.007813          0.005311          0.054962          0.000033          0.000068         -0.025758
                 -0.027860          0.057403          0.006806          0.000166          0.000077         -0.076194
   3   1         -0.429226         -0.010130         -0.000019          0.179525          0.047024         -0.107133
                  5.848592         -0.309575         -0.000350          0.114731         -0.004651         -0.068043
                 -0.008897         -0.007865          0.000108         -0.595146          0.443681          0.771398
                 -0.561280         -0.032054         -0.000022         -0.506125         -0.445373         -0.300170
   3   2         -1.317507         -1.193378          0.000055         -0.004402         -0.878183          0.954842
                 -0.309575          6.218648          0.000102          0.015119          0.199942          0.232994
                  0.007491         -0.078205         -0.000187          0.494612         -0.104176         -0.566592
                  1.191095         -1.082926         -0.000005         -0.446087          0.007434         -0.169643
   3   3          0.000032          0.000042         -0.077051         -0.031581          0.879571         -0.806781
                 -0.000350          0.000102          5.581574          0.025796          0.174954          0.237908
                 -0.000110          0.000154         -0.037961          0.747045         -0.466152         -0.806901
                  0.000300         -0.000469         -0.153724         -0.235400         -0.137434         -0.898836
   4   1         -0.633284          0.422295          0.776150         -0.036222          0.009781         -0.000034
                  0.114731          0.015119          0.025796          5.676575          0.875156         -0.000006
                  0.179626          0.003862          0.030940         -0.453948          0.196452         -0.000012
                 -0.612919         -0.455591         -0.867726         -0.218403         -0.626879          0.000114
   4   2          0.472708         -0.066265         -0.413395         -0.045301         -0.082789         -0.000063
                 -0.004651          0.199942          0.174954          0.875156          4.677815         -0.000000
                 -0.047471         -0.878224          0.881361         -1.283332         -1.078985         -0.000000
                 -0.456510         -0.087201         -0.500345          0.683058         -0.303880         -0.000000
   4   3          0.880470         -0.384215         -0.806429         -0.000009          0.000000         -0.061119
                 -0.068043          0.232994          0.237908         -0.000006         -0.000000          6.147621
                  0.104801          0.953285         -0.806945         -0.000081         -0.000118         -0.136213
                 -0.904208         -0.520740         -0.891271         -0.000050          0.000076         -0.078825
   5   1         -0.360925          0.990698         -0.000020          0.003247          0.016801         -0.007813
                 -0.008897          0.007491         -0.000110          0.179626         -0.047471          0.104801
                  5.846989          0.309344          0.000034         -0.018964          0.006000          0.057784
                 -0.451790         -1.128618         -0.000005         -0.041478          0.009101         -0.067605
   5   2         -0.222865         -0.801956         -0.000167          0.016783          0.021745          0.005311
                 -0.007865         -0.078205          0.000154          0.003862         -0.878224          0.953285
                  0.309344          6.214404         -0.000224          0.004474         -0.023670          0.073080
                  0.094063         -1.192628          0.000034         -0.001759         -0.020304          0.090007
   5   3          0.000008          0.000086         -0.139692          0.009534         -0.005402          0.054962
                  0.000108         -0.000187         -0.037961          0.030940          0.881361         -0.806945
                  0.000034         -0.000224          5.581161          0.053421          0.053859         -0.003524
                  0.000266          0.000512         -0.153053         -0.099997          0.123155          0.026536
   6   1          0.175168          0.030143         -0.138883         -0.333818         -0.154485          0.000033
                 -0.595146          0.494612          0.747045         -0.453948         -1.283332         -0.000081
                 -0.018964          0.004474          0.053421          4.169646          0.000736          0.000029
                  0.177078         -0.000381         -0.001608         -0.309678          0.628317          0.000011
   6   2          0.050187          0.140340         -0.110905          1.198013         -0.935299          0.000068
                  0.443681         -0.104176         -0.466152          0.196452         -1.078985         -0.000118
                  0.006000         -0.023670          0.053859          0.000736          6.186828         -0.000000
                 -0.000117         -0.876117          0.999238         -0.672706         -0.216346          0.000000
   6   3         -0.237476         -0.059191          0.237884          0.000005          0.000000         -0.025758
                  0.771398         -0.566592         -0.806901         -0.000012         -0.000000         -0.136213
                  0.057784          0.073080         -0.003524          0.000029         -0.000000          6.146023
                 -0.000996          1.039268         -0.890971          0.000101          0.000045         -0.081423
   7   1         -1.457656         -0.545811          0.000582         -0.011893         -0.011081         -0.027860
                 -0.561280          1.191095          0.000300         -0.612919         -0.456510         -0.904208
                 -0.451790          0.094063          0.000266          0.177078         -0.000117         -0.000996
                  6.094008          0.000541         -0.000042          0.222126         -0.017209          0.226519
   7   2          0.675224         -0.191631         -0.000023          0.013120         -0.038592          0.057403
                 -0.032054         -1.082926         -0.000469         -0.455591         -0.087201         -0.520740
                 -1.128618         -1.192628          0.000512         -0.000381         -0.876117          1.039268
                  0.000541          6.093985         -0.000025         -0.017396          0.201871         -0.128140
   7   3         -0.000004         -0.000036         -0.157021         -0.040180          0.073230          0.006806
                 -0.000022         -0.000005         -0.153724         -0.867726         -0.500345         -0.891271
                 -0.000005          0.000034         -0.153053         -0.001608          0.999238         -0.890971
                 -0.000042         -0.000025          6.570051          0.240699         -0.135981          0.236776
   8   1          0.265939         -0.000054          0.001206         -0.258369          0.602618          0.000166
                 -0.506125         -0.446087         -0.235400         -0.218403          0.683058         -0.000050
                 -0.041478         -0.001759         -0.099997         -0.309678         -0.672706          0.000101
                  0.222126         -0.017396          0.240699          2.118877          0.017492          0.000062
   8   2         -0.000295         -0.763117          0.270786         -0.710762         -0.264319          0.000077
                 -0.445373          0.007434         -0.137434         -0.626879         -0.303880          0.000076
                  0.009101         -0.020304          0.123155          0.628317         -0.216346          0.000045
                 -0.017209          0.201871         -0.135981          0.017492          2.158962          0.000000
   8   3         -0.001265          0.347879         -0.898432         -0.000021          0.000000         -0.076194
                 -0.300170         -0.169643         -0.898836          0.000114         -0.000000         -0.078825
                 -0.067605          0.090007          0.026536          0.000011          0.000000         -0.081423
                  0.226519         -0.128140          0.236776          0.000062          0.000000          4.201313

 Supercell   2 at (1,0,0)        5.806 A                             
   1   1         -0.062368          0.083362          0.000148         -0.017417          0.003511          0.092605
                 -0.057934          0.021537          0.000073         -0.053125          0.015054         -0.049293
                 -0.428623          1.320356          0.000113          0.033048         -0.000413         -0.001111
                 -0.040650         -0.000947          0.000043         -0.021559         -0.013370          0.044521
   1   2          0.083362         -0.135916          0.000066          0.004726         -0.025142          0.013143
                  0.035294         -0.027029         -0.000101          0.044309          0.021481          0.092116
                  0.009577         -1.192969          0.000025         -0.000219         -0.007363         -0.008471
                 -0.000717         -0.009461         -0.000044         -0.001860         -0.039093         -0.102080
   1   3          0.000148          0.000066          0.028263          0.071244          0.016548         -0.002877
                  0.000034          0.000161         -0.036751         -0.080749          0.142409          0.013121
                  0.000015          0.000064         -0.076988         -0.000505          0.015944          0.055015
                 -0.000005         -0.000188          0.007807          0.054354         -0.146911          0.026961
   2   1         -0.017417          0.004726          0.071244         -0.027129          0.004889          0.000002
                 -0.026650         -0.002375          0.019717         -1.396248          0.743939          0.000017
                  0.184169          0.044235         -0.167096         -0.454592         -0.196274         -0.000003
                 -0.612996          0.455666          0.868108         -0.034756          0.034117          0.000017
   2   2          0.003511         -0.025142          0.016548          0.004889         -0.166914         -0.000000
                 -0.000569         -0.015582         -0.074110         -0.740710         -0.141911         -0.000000
                  0.024499          0.130311         -0.065329          1.286189         -1.079585         -0.000000
                  0.456059         -0.087129         -0.499998          0.034351         -0.001289          0.000000
   2   3          0.092605          0.013143         -0.002877          0.000002         -0.000000          0.042863
                  0.035866         -0.087160         -0.003582          0.000099          0.000068         -0.141693
                 -0.169123         -0.176188          0.237861          0.000084         -0.000118         -0.136095
                  0.904852         -0.521262         -0.891139         -0.000030          0.000002         -0.034084
   3   1         -0.057934          0.035294          0.000034         -0.026650         -0.000569          0.035866
                 -0.072742          0.090326          0.000169          0.184728         -0.025258          0.170701
                 -1.576346         -0.656767         -0.000161         -0.019036         -0.005835         -0.058320
                 -0.450872          1.128348          0.000011          0.042616         -0.007218          0.020433
   3   2          0.021537         -0.027029          0.000161         -0.002375         -0.015582         -0.087160
                  0.090326         -0.170241         -0.000176         -0.045103          0.130614         -0.177123
                  0.658927         -0.046347          0.000117         -0.004849         -0.023322          0.073809
                 -0.091954         -1.193117         -0.000031         -0.007634          0.050356          0.012716
   3   3          0.000073         -0.000101         -0.036751          0.019717         -0.074110         -0.003582
                  0.000169         -0.000176          0.056443          0.168731         -0.064538          0.237866
                  0.000043         -0.000105         -0.078964         -0.052393          0.053634         -0.003065
                 -0.000262          0.000517         -0.152538          0.001669         -0.000653         -0.093884
   4   1         -0.053125          0.044309         -0.080749         -1.396248         -0.740710          0.000099
                  0.184728         -0.045103          0.168731         -0.097600          0.074159         -0.000002
                  0.028332         -0.031820          0.084370         -0.082463         -0.017830         -0.000021
                  0.032558         -0.006121         -0.013525         -0.256389          0.708680         -0.000056
   4   2          0.015054          0.021481          0.142409          0.743939         -0.141911          0.000068
                 -0.025258          0.130614         -0.064538          0.074159         -0.182660          0.000000
                 -0.003365         -0.059729         -0.142793          0.037804         -0.034329          0.000000
                 -0.006854          0.039132         -0.005646         -0.596280         -0.264477         -0.000000
   4   3         -0.049293          0.092116          0.013121          0.000017         -0.000000         -0.141693
                  0.170701         -0.177123          0.237866         -0.000002          0.000000          0.038968
                  0.054798         -0.089085          0.012158          0.000044         -0.000009         -0.055770
                 -0.014298         -0.007363         -0.119005         -0.000161          0.000075         -0.073996
   5   1         -0.428623          0.009577          0.000015          0.184169          0.024499         -0.169123
                 -1.576346          0.658927          0.000043          0.028332         -0.003365          0.054798
                 -0.051045          0.072874          0.000117         -0.022160         -0.061318          0.104597
                 -0.012677         -0.015287          0.000029         -0.506510          0.445380          0.299356
   5   2          1.320356         -1.192969          0.000064          0.044235          0.130311         -0.176188
                 -0.656767         -0.046347         -0.000105         -0.031820         -0.059729         -0.089085
                  0.072874         -0.146221          0.000155         -0.032782         -0.009222         -0.003850
                 -0.015016         -0.031878         -0.000005          0.445715          0.007718         -0.171058
   5   3          0.000113          0.000025         -0.076988         -0.167096         -0.065329          0.237861
                 -0.000161          0.000117         -0.078964          0.084370         -0.142793          0.012158
                  0.000117          0.000155          0.028416          0.165595         -0.001747          0.012115
                 -0.000196          0.000033          0.012945          0.238109         -0.139104         -0.898644
   6   1          0.033048         -0.000219         -0.000505         -0.454592          1.286189          0.000084
                 -0.019036         -0.004849         -0.052393         -0.082463          0.037804          0.000044
                 -0.022160         -0.032782          0.165595         -0.130022          0.068038         -0.000010
                 -0.030023         -0.000631          0.047905          0.024093         -0.002288          0.000085
   6   2         -0.000413         -0.007363          0.015944         -0.196274         -1.079585         -0.000118
                 -0.005835         -0.023322          0.053634         -0.017830         -0.034329         -0.000009
                 -0.061318         -0.009222         -0.001747          0.068038         -0.065945         -0.000000
                  0.024029         -0.019358         -0.073034         -0.000898         -0.065351          0.000000
   6   3         -0.001111         -0.008471          0.055015         -0.000003         -0.000000         -0.136095
                 -0.058320          0.073809         -0.003065         -0.000021          0.000000         -0.055770
                  0.104597         -0.003850          0.012115         -0.000010         -0.000000          0.043081
                  0.037681         -0.055724          0.006985          0.000005          0.000036         -0.043974
   7   1         -0.040650         -0.000717         -0.000005         -0.612996          0.456059          0.904852
                 -0.450872         -0.091954         -0.000262          0.032558         -0.006854         -0.014298
                 -0.012677         -0.015016         -0.000196         -0.030023          0.024029          0.037681
                 -0.036835         -0.002379         -0.000015          0.192461         -0.000344         -0.002052
   7   2         -0.000947         -0.009461         -0.000188          0.455666         -0.087129         -0.521262
                  1.128348         -1.193117          0.000517         -0.006121          0.039132         -0.007363
                 -0.015287         -0.031878          0.000033         -0.000631         -0.019358         -0.055724
                 -0.002379         -0.034987         -0.000003         -0.000180          0.231653          0.254535
   7   3          0.000043         -0.000044          0.007807          0.868108         -0.499998         -0.891139
                  0.000011         -0.000031         -0.152538         -0.013525         -0.005646         -0.119005
                  0.000029         -0.000005          0.012945          0.047905         -0.073034          0.006985
                 -0.000015         -0.000003          0.045665         -0.002200          0.269341          0.236679
   8   1         -0.021559         -0.001860          0.054354         -0.034756          0.034351         -0.000030
                  0.042616         -0.007634          0.001669         -0.256389         -0.596280         -0.000161
                 -0.506510          0.445715          0.238109          0.024093         -0.000898          0.000005
                  0.192461         -0.000180         -0.002200         -0.179848          0.330935         -0.000002
   8   2         -0.013370         -0.039093         -0.146911          0.034117         -0.001289          0.000002
                 -0.007218          0.050356         -0.000653          0.708680         -0.264477          0.000075
                  0.445380          0.007718         -0.139104         -0.002288         -0.065351          0.000036
                 -0.000344          0.231653          0.269341          0.330935         -0.531398          0.000000
   8   3          0.044521         -0.102080          0.026961          0.000017          0.000000         -0.034084
                  0.020433          0.012716         -0.093884         -0.000056         -0.000000         -0.073996
                  0.299356         -0.171058         -0.898644          0.000085          0.000000         -0.043974
                 -0.002052          0.254535          0.236679         -0.000002          0.000000         -0.093753

 Supercell   3 at (0,1,0)        5.806 A                             
   1   1         -0.062097         -0.082630         -0.000024         -0.632962         -0.472887         -0.881492
                 -0.360573          0.220363         -0.000091          0.038636          0.000433          0.014204
                 -0.057536         -0.018399         -0.000119          0.126093         -0.000495         -0.001138
                 -0.050749         -0.000924          0.000010         -0.021427          0.012728         -0.041970
   1   2         -0.082630         -0.135906          0.000064         -0.422173         -0.066618         -0.383527
                 -0.990333         -0.801992          0.000061         -0.025604          0.018988         -0.003960
                 -0.035403         -0.026670          0.000089         -0.000240          0.230615          0.220708
                 -0.000705         -0.071705          0.000027          0.001684         -0.039097         -0.102038
   1   3         -0.000024          0.000064          0.028315         -0.776270         -0.412771         -0.806755
                  0.000021         -0.000165         -0.139861          0.014651          0.030489         -0.108278
                 -0.000151         -0.000076         -0.036055         -0.000503          0.204050          0.168483
                  0.000006          0.000321         -0.039839         -0.056773         -0.146899          0.026962
   2   1         -0.632962         -0.422173         -0.776270         -0.098073         -0.073098         -0.000012
                  0.028273          0.031369         -0.083595         -1.233539         -0.675839         -0.000010
                  0.204843         -0.045896          0.179700         -0.052688          0.000677          0.000009
                 -0.032530         -0.023303         -0.085314         -0.217162          0.628599          0.000031
   2   2         -0.472887         -0.066618         -0.412771         -0.073098         -0.177984          0.000000
                  0.002910         -0.059679         -0.141017          0.678058         -0.036303         -0.000000
                 -0.045826          0.151164         -0.103237         -0.052413         -0.065104          0.000000
                  0.001581         -0.017833         -0.005041         -0.689247         -0.305013          0.000000
   2   3         -0.881492         -0.383527         -0.806755         -0.000012          0.000000          0.038161
                 -0.052468         -0.090658          0.012300         -0.000046         -0.000040         -0.031305
                  0.193193         -0.110723          0.168428         -0.000040          0.000033         -0.055579
                 -0.064704         -0.006312          0.006749          0.000046          0.000078         -0.076230
   3   1         -0.360573         -0.990333          0.000021          0.028273          0.002910         -0.052468
                 -0.050228         -0.071217          0.000010          0.205032          0.045279         -0.191830
                 -1.021398          0.608802         -0.000164          0.035262         -0.027882          0.010562
                 -0.063306         -0.010540          0.000020         -0.041399         -0.009331          0.068449
   3   2          0.220363         -0.801992         -0.000165          0.031369         -0.059679         -0.090658
                 -0.071217         -0.149610         -0.000167          0.045365          0.151310         -0.112000
                 -0.605758         -0.143536          0.000173         -0.001620          0.022449         -0.005836
                 -0.008508         -0.053925         -0.000021          0.001540         -0.020385          0.089077
   3   3         -0.000091          0.000061         -0.139861         -0.083595         -0.141017          0.012300
                  0.000010         -0.000167          0.027643         -0.177690         -0.102321          0.168489
                  0.000088          0.000165         -0.141579         -0.018178         -0.028670         -0.108735
                 -0.000344         -0.000155         -0.036544          0.097313          0.121509          0.026338
   4   1          0.038636         -0.025604          0.014651         -1.233539          0.678058         -0.000046
                  0.205032          0.045365         -0.177690         -0.026060         -0.003837         -0.000000
                 -0.026708          0.001808         -0.018959         -0.334396         -1.198461         -0.000005
                 -0.011844         -0.013213          0.039784         -0.048356         -0.039848          0.000018
   4   2          0.000433          0.018988          0.030489         -0.675839         -0.036303         -0.000040
                  0.045279          0.151310         -0.102321         -0.003837         -0.171606          0.000000
                  0.000108         -0.015648         -0.075914          0.152366         -0.936855          0.000000
                  0.010641         -0.038631          0.073550         -0.032124         -0.012239          0.000000
   4   3          0.014204         -0.003960         -0.108278         -0.000010         -0.000000         -0.031305
                 -0.191830         -0.112000          0.168489         -0.000000          0.000000          0.043665
                 -0.033536         -0.085595         -0.003726         -0.000039          0.000066         -0.025914
                  0.027201          0.056876          0.006679          0.000085         -0.000024         -0.063576
   5   1         -0.057536         -0.035403         -0.000151          0.204843         -0.045826          0.193193
                 -1.021398         -0.605758          0.000088         -0.026708          0.000108         -0.033536
                 -0.071172         -0.088600          0.000200         -0.594917         -0.443426         -0.771158
                 -0.560748          0.032326          0.000020         -0.028679          0.005697         -0.112552
   5   2         -0.018399         -0.026670         -0.000076         -0.045896          0.151164         -0.110723
                  0.608802         -0.143536          0.000165          0.001808         -0.015648         -0.085595
                 -0.088600         -0.166562          0.000292         -0.495032         -0.104537         -0.565734
                 -1.192272         -1.083690         -0.000015          0.016927         -0.033063          0.012278
   5   3         -0.000119          0.000089         -0.036055          0.179700         -0.103237          0.168428
                 -0.000164          0.000173         -0.141579         -0.018959         -0.075914         -0.003726
                  0.000200          0.000292          0.057198         -0.748088         -0.466389         -0.807334
                 -0.000309         -0.000466         -0.153066         -0.155550          0.026744          0.026397
   6   1          0.126093         -0.000240         -0.000503         -0.052688         -0.052413         -0.000040
                  0.035262         -0.001620         -0.018178         -0.334396          0.152366         -0.000039
                 -0.594917         -0.495032         -0.748088         -0.129963         -0.068451         -0.000036
                 -0.030053          0.000131         -0.044486          0.007281         -0.002223          0.000008
   6   2         -0.000495          0.230615          0.204050          0.000677         -0.065104          0.000033
                 -0.027882          0.022449         -0.028670         -1.198461         -0.936855          0.000066
                 -0.443426         -0.104537         -0.466389         -0.068451         -0.065954          0.000000
                 -0.024283         -0.019354         -0.073061         -0.000760         -0.071454         -0.000000
   6   3         -0.001138          0.220708          0.168483          0.000009          0.000000         -0.055579
                  0.010562         -0.005836         -0.108735         -0.000005          0.000000         -0.025914
                 -0.771158         -0.565734         -0.807334         -0.000036          0.000000          0.043066
                 -0.035691         -0.055750          0.006988          0.000003         -0.000122         -0.065931
   7   1         -0.050749         -0.000705          0.000006         -0.032530          0.001581         -0.064704
                 -0.063306         -0.008508         -0.000344         -0.011844          0.010641          0.027201
                 -0.560748         -1.192272         -0.000309         -0.030053         -0.024283         -0.035691
                 -0.037864          0.002791         -0.000010          0.041633         -0.000282         -0.001643
[...]
 +        Character table from group theory analysis of eigenvectors          +
 +                           Point Group =   1, C1                            +
 + .......................................................................... +
 +  Rep  Mul |    E                                                           +
 +           | ----                                                           +
 + a      24 |    1                                                           +
 + -------------------------------------------------------------------------- +
 +  q-pt=   25 (  0.000000  0.000000  0.357143)     0.0370370370              +
 + -------------------------------------------------------------------------- +
 +  Acoustic sum rule correction <   0.030726 THz applied                     +
 +     N      Frequency irrep.                                                + 
 +                 (THz)                                                      + 
 +                                                                            +
 +     1      -1.693906   a                                                   + 
 +     2      -1.507362   a                                                   + 
 +     3       2.025173   a                                                   + 
 +     4       2.028670   a                                                   + 
 +     5       2.839817   a                                                   + 
 +     6       2.948231   a                                                   + 
 +     7       2.950773   a                                                   + 
 +     8       3.698753   a                                                   + 
 +     9       4.303907   a                                                   + 
 +    10       4.315262   a                                                   + 
 +    11       4.831882   a                                                   + 
 +    12       5.001364   a                                                   + 
 +    13       5.012898   a                                                   + 
 +    14       5.392688   a                                                   + 
 +    15       5.408264   a                                                   + 
 +    16       5.619010   a                                                   + 
 +    17       5.621757   a                                                   + 
 +    18       6.127075   a                                                   + 
 +    19       6.529591   a                                                   + 
 +    20       6.535856   a                                                   + 
 +    21       6.614113   a                                                   + 
 +    22       7.792579   a                                                   + 
 +    23       7.855929   a                                                   + 
 +    24       7.875790   a                                                   + 
 + .......................................................................... +
 +        Character table from group theory analysis of eigenvectors          +
 +                           Point Group =   1, C1                            +
 + .......................................................................... +
 +  Rep  Mul |    E                                                           +
 +           | ----                                                           +
 + a      24 |    1                                                           +
 + -------------------------------------------------------------------------- +
 +  q-pt=   26 (  0.000000  0.000000  0.428571)     0.0370370370              +
 + -------------------------------------------------------------------------- +
 +  Acoustic sum rule correction <   0.019564 THz applied                     +
 +     N      Frequency irrep.                                                + 
 +                 (THz)                                                      + 
 +                                                                            +
 +     1      -2.153164   a                                                   + 
 +     2      -1.966961   a                                                   + 
 +     3       2.183932   a                                                   + 
 +     4       2.186126   a                                                   + 
 +     5       2.811207   a                                                   + 
 +     6       2.818958   a                                                   + 
 +     7       3.274017   a                                                   + 
 +     8       4.090826   a                                                   + 
 +     9       4.541510   a                                                   + 
 +    10       4.550514   a                                                   + 
 +    11       4.985701   a                                                   + 
 +    12       5.018473   a                                                   + 
 +    13       5.035686   a                                                   + 
 +    14       5.118229   a                                                   + 
 +    15       5.283981   a                                                   + 
 +    16       5.299575   a                                                   + 
 +    17       5.300456   a                                                   + 
 +    18       5.875407   a                                                   + 
 +    19       6.527781   a                                                   + 
 +    20       6.600096   a                                                   + 
 +    21       6.606600   a                                                   + 
 +    22       7.848017   a                                                   + 
 +    23       7.907251   a                                                   + 
 +    24       7.930202   a                                                   + 
 + .......................................................................... +
 +        Character table from group theory analysis of eigenvectors          +
 +                           Point Group =   1, C1                            +
 + .......................................................................... +
 +  Rep  Mul |    E                                                           +
 +           | ----                                                           +
 + a      24 |    1                                                           +
 + -------------------------------------------------------------------------- +
 +  q-pt=   27 (  0.000000  0.000000  0.500000)     0.0370370370              +
 + -------------------------------------------------------------------------- +
 +  Acoustic sum rule correction <   0.015627 THz applied                     +
 +     N      Frequency irrep.                                                + 
 +                 (THz)                                                      + 
 +                                                                            +
 +     1      -2.311554   a                                                   + 
 +     2      -2.125183   a                                                   + 
 +     3       2.268802   a                                                   + 
 +     4       2.271747   a                                                   + 
 +     5       2.728695   a                                                   + 
 +     6       2.741486   a                                                   + 
 +     7       3.488651   a                                                   + 
 +     8       4.267563   a                                                   + 
 +     9       4.779822   a                                                   + 
 +    10       4.828264   a                                                   + 
 +    11       4.838722   a                                                   + 
 +    12       4.850859   a                                                   + 
 +    13       4.863519   a                                                   + 
 +    14       4.989963   a                                                   + 
 +    15       5.149015   a                                                   + 
 +    16       5.157250   a                                                   + 
 +    17       5.554419   a                                                   + 
 +    18       5.656698   a                                                   + 
 +    19       6.496314   a                                                   + 
 +    20       6.638908   a                                                   + 
 +    21       6.645392   a                                                   + 
 +    22       7.868277   a                                                   + 
 +    23       7.924676   a                                                   + 
 +    24       7.948793   a                                                   + 
 + .......................................................................... +
 +        Character table from group theory analysis of eigenvectors          +
 +                           Point Group =   1, C1                            +
 + .......................................................................... +
 +  Rep  Mul |    E                                                           +
 +           | ----                                                           +
 + a      24 |    1                                                           +
 ==============================================================================

 ************************** Forces **************************
 *                                                          *
 *               Cartesian components (eV/A)                *
 * -------------------------------------------------------- *
 *                         x            y            z      *
 *                                                          *
 * Ti              1     -0.00001      0.00309      0.00000 *
 * Ti              2      0.00015     -0.00152      0.00000 *
 * Ti              3     -0.00083      0.00115      0.00000 *
 * Ti              4     -0.00016     -0.00153     -0.00000 *
 * Ti              5      0.00082      0.00113      0.00000 *
 * Ti              6      0.00001     -0.00222     -0.00000 *
 * Ti              7      0.00003      0.00457      0.00000 *
 * V               1      0.00000     -0.00467     -0.00000 *
 *                                                          *
 ************************************************************

 ***************** Stress Tensor *****************
 *                                               *
 *          Cartesian components (GPa)           *
 * --------------------------------------------- *
 *             x             y             z     *
 *                                               *
 *  x      0.058665     -0.000004      0.000000  *
 *  y     -0.000004     -0.072826      0.000000  *
 *  z      0.000000      0.000000     -0.019355  *
 *                                               *
 *  Pressure:    0.0112                          *
 *                                               *
 *************************************************

 Pseudo atomic calculation performed for Ti 3s2 3p6 3d2 4s2

 Converged in 51 iterations to a total energy of -1587.0236 eV

 Pseudo atomic calculation performed for V 3s2 3p6 3d3 4s2

 Converged in 52 iterations to a total energy of -2065.7874 eV
Charge spilling parameter for spin component 1 = 0.06%

            Orbital Populations       
     Ion    Atom   Orbital             Charge
  -------------------------------------------
     Ti     1      S                    2.003
     Ti     1      Px                   2.005
     Ti     1      Py                   2.005
     Ti     1      Pz                   2.005
     Ti     1      S                    0.290
     Ti     1      Dzz                  0.593
     Ti     1      Dzy                  0.494
     Ti     1      Dzx                  0.458
     Ti     1      Dxx-yy               0.581
     Ti     1      Dxy                  0.567
     Ti     1      Px                   0.323
     Ti     1      Py                   0.330
     Ti     1      Pz                   0.334
     Ti     2      S                    2.003
     Ti     2      Px                   2.005
     Ti     2      Py                   2.005
     Ti     2      Pz                   2.005
     Ti     2      S                    0.292
     Ti     2      Dzz                  0.608
     Ti     2      Dzy                  0.469
     Ti     2      Dzx                  0.486
     Ti     2      Dxx-yy               0.555
     Ti     2      Dxy                  0.579
     Ti     2      Px                   0.328
     Ti     2      Py                   0.337
     Ti     2      Pz                   0.309
     Ti     3      S                    2.003
     Ti     3      Px                   2.005
     Ti     3      Py                   2.005
     Ti     3      Pz                   2.005
     Ti     3      S                    0.290
     Ti     3      Dzz                  0.593
     Ti     3      Dzy                  0.467
     Ti     3      Dzx                  0.485
     Ti     3      Dxx-yy               0.571
     Ti     3      Dxy                  0.576
     Ti     3      Px                   0.328
     Ti     3      Py                   0.325
     Ti     3      Pz                   0.333
     Ti     4      S                    2.003
     Ti     4      Px                   2.005
     Ti     4      Py                   2.005
     Ti     4      Pz                   2.005
     Ti     4      S                    0.292
     Ti     4      Dzz                  0.608
     Ti     4      Dzy                  0.469
     Ti     4      Dzx                  0.486
     Ti     4      Dxx-yy               0.555
     Ti     4      Dxy                  0.579
     Ti     4      Px                   0.328
     Ti     4      Py                   0.337
     Ti     4      Pz                   0.309
     Ti     5      S                    2.003
     Ti     5      Px                   2.005
     Ti     5      Py                   2.005
     Ti     5      Pz                   2.005
     Ti     5      S                    0.290
     Ti     5      Dzz                  0.593
     Ti     5      Dzy                  0.467
     Ti     5      Dzx                  0.485
     Ti     5      Dxx-yy               0.571
     Ti     5      Dxy                  0.576
     Ti     5      Px                   0.328
     Ti     5      Py                   0.325
     Ti     5      Pz                   0.333
     Ti     6      S                    2.003
     Ti     6      Px                   2.005
     Ti     6      Py                   2.005
     Ti     6      Pz                   2.005
     Ti     6      S                    0.291
     Ti     6      Dzz                  0.609
     Ti     6      Dzy                  0.495
     Ti     6      Dzx                  0.460
     Ti     6      Dxx-yy               0.593
     Ti     6      Dxy                  0.541
     Ti     6      Px                   0.342
     Ti     6      Py                   0.324
     Ti     6      Pz                   0.309
     Ti     7      S                    2.004
     Ti     7      Px                   2.006
     Ti     7      Py                   2.006
     Ti     7      Pz                   2.006
     Ti     7      S                    0.307
     Ti     7      Dzz                  0.623
     Ti     7      Dzy                  0.472
     Ti     7      Dzx                  0.471
     Ti     7      Dxx-yy               0.579
     Ti     7      Dxy                  0.578
     Ti     7      Px                   0.335
     Ti     7      Py                   0.335
     Ti     7      Pz                   0.320
      V     1      S                    2.001
      V     1      Px                   2.003
      V     1      Py                   2.003
      V     1      Pz                   2.003
      V     1      Dzz                  0.859
      V     1      Dzy                  0.649
      V     1      Dzx                  0.649
      V     1      Dxx-yy               0.779
      V     1      Dxy                  0.776
      V     1      S                    0.350
      V     1      Px                   0.325
      V     1      Py                   0.325
      V     1      Pz                   0.322
  -------------------------------------------
                           Total:      97.000
  -------------------------------------------

     Atomic Populations (Mulliken)
     -----------------------------
Species          Ion     s       p       d       f      Total   Charge (e)
==========================================================================
  Ti              1     2.293   7.002   2.693   0.000  11.988     0.012
  Ti              2     2.295   6.991   2.698   0.000  11.983     0.017
  Ti              3     2.293   7.002   2.693   0.000  11.988     0.012
  Ti              4     2.295   6.991   2.698   0.000  11.983     0.017
  Ti              5     2.293   7.002   2.693   0.000  11.988     0.012
  Ti              6     2.294   6.991   2.698   0.000  11.983     0.017
  Ti              7     2.311   7.009   2.723   0.000  12.043    -0.043
  V               1     2.351   6.980   3.712   0.000  13.043    -0.043
==========================================================================

                 Bond                   Population      Length (A)
======================================================================
              Ti 5 -- V 1                    0.17        2.83737
              Ti 3 -- V 1                    0.17        2.83737
              Ti 1 -- V 1                    0.17        2.83737
              Ti 1 -- Ti 5                   0.26        2.84154
              Ti 1 -- Ti 3                   0.26        2.84154
              Ti 3 -- Ti 5                   0.26        2.84154
              Ti 4 -- Ti 7                   0.02        2.85306
              Ti 2 -- Ti 7                   0.02        2.85306
              Ti 6 -- Ti 7                   0.02        2.85307
              Ti 3 -- Ti 6                   0.03        2.87108
              Ti 1 -- Ti 4                   0.03        2.87108
              Ti 1 -- Ti 2                   0.03        2.87108
              Ti 5 -- Ti 6                   0.03        2.87108
              Ti 4 -- Ti 5                   0.02        2.87108
              Ti 2 -- Ti 3                   0.02        2.87108
              Ti 2 -- Ti 4                   0.30        2.88829
              Ti 4 -- Ti 6                   0.29        2.88830
              Ti 2 -- Ti 6                   0.29        2.88830
              Ti 6 -- V 1                    0.35        2.90301
              Ti 4 -- V 1                    0.35        2.90301
              Ti 2 -- V 1                    0.35        2.90301
              Ti 1 -- Ti 7                   0.32        2.90321
              Ti 3 -- Ti 7                   0.32        2.90321
              Ti 5 -- Ti 7                   0.32        2.90322
======================================================================


Writing analysis data to Ti7V_hcp_phonon.castep_bin

Writing model to Ti7V_hcp_phonon.check
 
 A BibTeX formatted list of references used in this run has been written to 
 Ti7V_hcp_phonon.bib
 
Initialisation time =     14.31 s
Calculation time    = 138593.85 s
Finalisation time   =      4.40 s
Total time          = 138612.56 s
Peak Memory Use     = 4218792 kB
 
Overall parallel efficiency rating: Mediocre (51%)
 
Data was distributed by:-
G-vector (6-way); efficiency rating: Mediocre (53%)
k-point (32-way); efficiency rating: Excellent (93%)
