 +-------------------------------------------------+
 |                                                 |
 |      CCC   AA    SSS  TTTTT  EEEEE  PPPP        |
 |     C     A  A  S       T    E      P   P       |
 |     C     AAAA   SS     T    EEE    PPPP        |
 |     C     A  A     S    T    E      P           |
 |      CCC  A  A  SSS     T    EEEEE  P           |
 |                                                 |
 +-------------------------------------------------+
 |                                                 |
 | Welcome to Academic Release CASTEP version 24.1 |
 | Ab Initio Total Energy Program                  |
 |                                                 |
 | Authors:                                        |
 | M. Segall, M. Probert, C. Pickard, P. Hasnip,   |
 | S. Clark, K. Refson, J. R. Yates,               |
 | A. Bartok-Partay, M. Payne                      |
 |                                                 |
 | Contributors:                                   |
 | P. Lindan, P. Haynes, J. White, V. Milman,      |
 | N. Govind, M. Gibson, P. Tulip, V. Cocula,      |
 | B. Montanari, D. Quigley, M. Glover,            |
 | L. Bernasconi, A. Perlov, M. Plummer,           |
 | E. McNellis, J. Meyer, J. Gale, D. Jochym       |
 | J. Aarons, B. Walker, R. Gillen, D. Jones       |
 | T. Green, I. J. Bush, C. J. Armstrong,          |
 | E. J. Higgins, E. L. Brown, M. S. McFly,        |
 | J. Wilkins, B-C. Shih, P. J. P. Byrne,          |
 | R. J. Maurer, J. C. Womack, J. Dziedzic,        |
 | L. LeBlanc, T. K. Stenczel, J. Kermode,         |
 | S. Sturniolo, B. Shi, B. Durham, M. Evans,      |
 | M. J. Smith, A. Tamerus, Z. Hawkhead,           |
 | V. Ravindran, T. Hollins, S. A. Joyce,          |
 | R. T. Strong, A. M. Reilly                      |
 |                                                 |
 | Copyright (c) 2000 - 2023                       |
 |                                                 |
 |     Distributed under license from Cambridge    |
 |     Enterprise for academic use only.           |
 |                                                 |
 | Please cite                                     |
 |                                                 |
 |     "First principles methods using CASTEP"     |
 |                                                 |
 |         Zeitschrift fuer Kristallographie       |
 |           220(5-6) pp. 567-570 (2005)           |
 |                                                 |
 | S. J. Clark, M. D. Segall, C. J. Pickard,       |
 | P. J. Hasnip, M. J. Probert, K. Refson,         |
 | M. C. Payne                                     |
 |                                                 |
 |       in all publications arising from          |
 |              your use of CASTEP                 |
 |                                                 |
 +-------------------------------------------------+
 |                                                 |
 |              http://www.castep.org              |
 |                                                 |
 +-------------------------------------------------+



 Compiled for linux_x86_64_gfortran10 on Tue, 02 May 2023 15:31:46 +0100
 from code version db08e394c+  default  Mon May 1 16:40:39 2023 +0100
 Compiler: GNU Fortran 10.2.0; Optimisation: fast
 Comms   : Open MPI v4.0.5
 MATHLIBS: openblas (LAPACK version 3.9.0)
 FFT Lib : fftw3 version fftw-3.3.8-sse2-avx-avx2-avx2_128
 Fundamental constants values: CODATA 2018

 Run started: Wed, 07 Feb 2024 15:30:52 +0000

 Atomic calculation performed for Al: 1s2 2s2 2p6 3s2 3p1

 Converged in 54 iterations to an ae energy of -6603.783 eV

   ============================================================                
   | Pseudopotential Report - Date of generation  7-02-2024   |                
   ------------------------------------------------------------                
   | Element: Al Ionic charge:  3.00 Level of theory: PBE     |                
   | Atomic Solver: Koelling-Harmon                           |                
   |                                                          |                
   |               Reference Electronic Structure             |                
   |         Orbital         Occupation         Energy        |                
   |            3s              2.000           -0.285        |                
   |            3p              1.000           -0.100        |                
   |                                                          |                
   |                 Pseudopotential Definition               |                
   |        Beta     l      e      Rc     scheme   norm       |                
   |          1      0   -0.285   2.192     qc      0         |                
   |          2      0    0.250   2.192     qc      0         |                
   |          3      1   -0.100   2.192     qc      0         |                
   |          4      1    0.250   2.192     qc      0         |                
   |          5      2    0.000   2.000     qc      0         |                
   |          6      2    0.250   2.000     qc      0         |                
   |         loc     3    0.000   2.192     pn      0         |                
   |                                                          |                
   | Augmentation charge Rinner = 1.398                       |                
   | Partial core correction Rc = 1.398                       |                
   ------------------------------------------------------------                
   | "3|2.2|2.2|1.4|4|5|5|30:31:32U2U2"                       |                
   ------------------------------------------------------------                
   |      Author: Chris J. Pickard, Cambridge University      |                
   ============================================================                

 Atomic calculation performed for Ti: 1s2 2s2 2p6 3s2 3p6 3d2 4s2

 Converged in 79 iterations to an ae energy of -23226.658 eV

   ============================================================                
   | Pseudopotential Report - Date of generation  7-02-2024   |                
   ------------------------------------------------------------                
   | Element: Ti Ionic charge: 12.00 Level of theory: PBE     |                
   | Atomic Solver: Koelling-Harmon                           |                
   |                                                          |                
   |               Reference Electronic Structure             |                
   |         Orbital         Occupation         Energy        |                
   |            3s              2.000           -2.302        |                
   |            3p              6.000           -1.428        |                
   |            4s              2.000           -0.164        |                
   |            3d              2.000           -0.157        |                
   |                                                          |                
   |                 Pseudopotential Definition               |                
   |        Beta     l      e      Rc     scheme   norm       |                
   |          1      0   -2.302   1.793     qc      0         |                
   |          2      0   -0.164   1.793     qc      0         |                
   |          3      0    0.250   1.793     qc      0         |                
   |          4      1   -1.428   1.793     qc      0         |                
   |          5      1    0.250   1.793     qc      0         |                
   |          6      2   -0.157   1.793     qc      0         |                
   |          7      2    0.250   1.793     qc      0         |                
   |         loc     3    0.000   1.793     pn      0         |                
   |                                                          |                
   | Augmentation charge Rinner = 1.263                       |                
   | Partial core correction Rc = 1.263                       |                
   ------------------------------------------------------------                
   | "3|1.8|9|10|11|30U:40:31:32(qc=5.5)"                     |                
   ------------------------------------------------------------                
   |      Author: Chris J. Pickard, Cambridge University      |                
   ============================================================                

 Atomic calculation performed for V: 1s2 2s2 2p6 3s2 3p6 3d3 4s2

 Converged in 81 iterations to an ae energy of -25823.733 eV

   ============================================================                
   | Pseudopotential Report - Date of generation  7-02-2024   |                
   ------------------------------------------------------------                
   | Element: V Ionic charge: 13.00 Level of theory: PBE      |                
   | Atomic Solver: Koelling-Harmon                           |                
   |                                                          |                
   |               Reference Electronic Structure             |                
   |         Orbital         Occupation         Energy        |                
   |            3s              2.000           -2.581        |                
   |            3p              6.000           -1.618        |                
   |            3d              3.000           -0.190        |                
   |            4s              2.000           -0.173        |                
   |                                                          |                
   |                 Pseudopotential Definition               |                
   |        Beta     l      e      Rc     scheme   norm       |                
   |          1      0   -2.581   1.803     qc      0         |                
   |          2      0   -0.173   1.803     qc      0         |                
   |          3      0    0.250   1.803     qc      0         |                
   |          4      1   -1.618   1.803     qc      0         |                
   |          5      1    0.250   1.803     qc      0         |                
   |          6      2   -0.190   1.803     qc      0         |                
   |          7      2    0.250   1.803     qc      0         |                
   |         loc     3    0.000   1.803     pn      0         |                
   |                                                          |                
   | Augmentation charge Rinner = 0.600                       |                
   | Partial core correction Rc = 0.600                       |                
   ------------------------------------------------------------                
   | "3|1.8|1.8|0.6|12|14|16|30U:40:31:32(qc=7)"              |                
   ------------------------------------------------------------                
   |      Author: Chris J. Pickard, Cambridge University      |                
   ============================================================                

 Pseudo atomic calculation performed for Al 3s2 3p1

 Converged in 15 iterations to a total energy of -107.1308 eV

 Pseudo atomic calculation performed for Ti 3s2 3p6 3d2 4s2

 Converged in 34 iterations to a total energy of -1587.0236 eV

 Pseudo atomic calculation performed for V 3s2 3p6 3d3 4s2

 Converged in 35 iterations to a total energy of -2065.7874 eV
 Calculation parallelised over 336 processes.
 Data is distributed by G-vector(24-way) and k-point(14-way)

 ************************************ Title ************************************
 

 ***************************** General Parameters ******************************
  
 output verbosity                               : normal  (1)
 write checkpoint data to                       : sqs_hcp_sc3x3x3_Ti46Al6V2_frame0_09.check
 type of calculation                            : single point energy
 stress calculation                             : on
 density difference calculation                 : off
 electron localisation func (ELF) calculation   : off
 Hirshfeld analysis                             : off
 polarisation (Berry phase) analysis            : off
 molecular orbital projected DOS                : off
 deltaSCF calculation                           : off
 unlimited duration calculation
 timing information                             : on
 memory usage estimate                          : on
 write extra output files                       : on
 write final potential to formatted file        : off
 write final density to formatted file          : off
 write BibTeX reference list                    : on
 write OTFG pseudopotential files               : on
 write electrostatic potential file             : on
 write bands file                               : on
 checkpoint writing                             : off
  
 output         length unit                     : A
 output           mass unit                     : amu
 output           time unit                     : ps
 output         charge unit                     : e
 output           spin unit                     : hbar/2
 output         energy unit                     : eV
 output          force unit                     : eV/A
 output       velocity unit                     : A/ps
 output       pressure unit                     : GPa
 output     inv_length unit                     : 1/A
 output      frequency unit                     : cm-1
 output force constant unit                     : eV/A**2
 output         volume unit                     : A**3
 output   IR intensity unit                     : (D/A)**2/amu
 output         dipole unit                     : D
 output         efield unit                     : eV/A/e
 output        entropy unit                     : J/mol/K
 output    efield chi2 unit                     : pm/V
  
 wavefunctions paging                           : none
 random number generator seed                   :  153052498
 data distribution                              : k-point only
 optimization strategy                          : maximize speed(+++)

 *********************** Exchange-Correlation Parameters ***********************
  
 using functional                               : Perdew Burke Ernzerhof
 relativistic treatment                         : Koelling-Harmon
 DFT+D: Semi-empirical dispersion correction    : off

 ************************* Pseudopotential Parameters **************************
  
 pseudopotential representation                 : reciprocal space
 <beta|phi> representation                      : reciprocal space
 spin-orbit coupling                            : off

 **************************** Basis Set Parameters *****************************
  
 plane wave basis set cut-off                   :   800.0000   eV
 size of standard grid                          :     2.0000
 size of   fine   gmax                          :    28.9810   1/A
 largest prime factor in FFT                    :          5
 finite basis set correction                    : automatic
 number of sample energies                      :          3
           sample  spacing                      :     5.0000   eV

 **************************** Electronic Parameters ****************************
  
 number of  electrons                           :  596.0    
 net charge of system                           :  0.000    
 treating system as non-spin-polarized
 number of bands                                :        333

 ********************* Electronic Minimization Parameters **********************
  
 Method: Treating system as metallic with density mixing treatment of electrons,
         and number of  SD  steps               :          1
         and number of  CG  steps               :          4
  
 total energy / atom convergence tol.           : 0.1000E-05   eV
 eigen-energy convergence tolerance             : 0.1622E-06   eV
 max force / atom convergence tol.              : ignored
 convergence tolerance window                   :          3   cycles
 max. number of SCF cycles                      :         30
 number of fixed-spin iterations                :         10
 smearing scheme                                : Gaussian
 smearing width                                 : 0.5000E-01   eV
 Fermi energy convergence tolerance             : 0.2721E-13   eV
 periodic dipole correction                     : NONE

 ************************** Density Mixing Parameters **************************
  
 density-mixing scheme                          : Pulay
 max. length of mixing history                  :         20
 charge density mixing amplitude                : 0.8000    
 cut-off energy for mixing                      :  800.0       eV
 charge density mixing g-vector                 :  1.500       1/A

 *********************** Population Analysis Parameters ************************
  
 Population analysis with cutoff                :  3.000       A
 Population analysis output                     : summary and pdos components

 ******************************* Developer Code ********************************
  
 PARALLEL: kpoint=14 : ENDPARALLEL
 no_improve_wvfn

 *******************************************************************************
  

                           -------------------------------
                                      Unit Cell
                           -------------------------------
        Real Lattice(A)                      Reciprocal Lattice(1/A)
     4.4567500    -7.5679570    -0.0756700        0.704906612  -0.415159228   0.004155107
     4.4567500     7.5679570     0.0757240        0.704906662   0.415159138  -0.004146172
    -0.0000880     0.1388350    13.8866840       -0.000002741  -0.004526106   0.452506422

                       Lattice parameters(A)       Cell Angles
                    a =      8.783070          alpha =   89.012627
                    b =      8.783071          beta  =   90.987390
                    c =     13.887378          gamma =  119.015068

                       Current cell volume =           936.660155       A**3
                                   density =             2.632389   AMU/A**3
                                           =             4.371185     g/cm^3

                           -------------------------------
                                     Cell Contents
                           -------------------------------
                         Total number of ions in cell =   54
                      Total number of species in cell =    3
                        Max number of any one species =   46

            xxxxxxxxxxxxxxxxxxxxxxxxxxxxxxxxxxxxxxxxxxxxxxxxxxxxxxxxxxxx
            x  Element    Atom        Fractional coordinates of atoms  x
            x            Number           u          v          w      x
            x----------------------------------------------------------x
            x  Al           1         0.219996   0.444907   0.915446   x 
            x  Al           2         0.446433   0.883893   0.751022   x 
            x  Al           3         0.886441   0.111002   0.249256   x 
            x  Al           4         0.781569   0.221083   0.751621   x 
            x  Al           5         0.885394   0.445419   0.585027   x 
            x  Al           6         0.777651   0.548866   0.750608   x 
            x  Ti           1         0.103279   0.232817   0.080418   x 
            x  Ti           2         0.216155   0.108856   0.245566   x 
            x  Ti           3         0.110011   0.219632   0.413440   x 
            x  Ti           4         0.220396   0.113283   0.584501   x 
            x  Ti           5         0.109255   0.221623   0.755627   x 
            x  Ti           6         0.219503   0.114816   0.920475   x 
            x  Ti           7         0.215066   0.447222   0.246789   x 
            x  Ti           8         0.109295   0.558598   0.418778   x 
            x  Ti           9         0.222706   0.439540   0.582768   x 
            x  Ti          10         0.115625   0.554727   0.747779   x 
            x  Ti          11         0.107393   0.880274   0.081147   x 
            x  Ti          12         0.218892   0.774872   0.249152   x 
            x  Ti          13         0.113514   0.892110   0.417165   x 
            x  Ti          14         0.224863   0.783578   0.586854   x 
            x  Ti          15         0.119497   0.889742   0.754157   x 
            x  Ti          16         0.229912   0.775522   0.918082   x 
            x  Ti          17         0.447801   0.220534   0.082913   x 
            x  Ti          18         0.554973   0.109054   0.251671   x 
            x  Ti          19         0.439409   0.220787   0.414680   x 
            x  Ti          20         0.555972   0.109078   0.584947   x 
            x  Ti          21         0.445984   0.216759   0.751354   x 
            x  Ti          22         0.560802   0.103085   0.915914   x 
            x  Ti          23         0.437336   0.553747   0.080761   x 
            x  Ti          24         0.555177   0.444877   0.247306   x 
            x  Ti          25         0.444371   0.556499   0.413600   x 
            x  Ti          26         0.555187   0.443536   0.581254   x 
            x  Ti          27         0.447221   0.554440   0.750740   x 
            x  Ti          28         0.551306   0.441513   0.916646   x 
            x  Ti          29         0.439201   0.889437   0.083502   x 
            x  Ti          30         0.557427   0.783178   0.248438   x 
            x  Ti          31         0.439909   0.886969   0.420472   x 
            x  Ti          32         0.549436   0.772836   0.582393   x 
            x  Ti          33         0.553858   0.778457   0.918968   x 
            x  Ti          34         0.775398   0.217811   0.083901   x 
            x  Ti          35         0.780941   0.226238   0.419536   x 
            x  Ti          36         0.898446   0.122743   0.582247   x 
            x  Ti          37         0.781084   0.557143   0.079138   x 
            x  Ti          38         0.892695   0.446386   0.249959   x 
            x  Ti          39         0.777701   0.556095   0.418633   x 
            x  Ti          40         0.895009   0.437072   0.915384   x 
            x  Ti          41         0.785430   0.896558   0.081420   x 
            x  Ti          42         0.887957   0.781146   0.250966   x 
            x  Ti          43         0.778287   0.892939   0.418009   x 
            x  Ti          44         0.892531   0.775469   0.587315   x 
            x  Ti          45         0.775386   0.893703   0.751153   x 
            x  Ti          46         0.885543   0.776190   0.913040   x 
            x  V            1         0.116433   0.560537   0.079059   x 
            x  V            2         0.888941   0.112801   0.919001   x 
            xxxxxxxxxxxxxxxxxxxxxxxxxxxxxxxxxxxxxxxxxxxxxxxxxxxxxxxxxxxx


                         No user defined ionic velocities

                           -------------------------------
                                   Details of Species
                           -------------------------------

                               Mass of species in AMU
                                    Al   26.9815400
                                    Ti   47.8670000
                                    V   50.9415000

                          Electric Quadrupole Moment (Barn)
                                    Al    0.1466000 Isotope 27
                                    Ti    0.3020000 Isotope 47
                                    V   -0.0520000 Isotope 51

                          Files used for pseudopotentials:
                                    Al 3|2.2|2.2|1.4|4|5|5|30:31:32U2U2
                                    Ti 3|1.8|9|10|11|30U:40:31:32(qc=5.5)
                                    V 3|1.8|1.8|0.6|12|14|16|30U:40:31:32(qc=7)

                           -------------------------------
                              k-Points For BZ Sampling
                           -------------------------------
                       MP grid size for SCF calculation is  7  7  4
                            with an offset of   0.000  0.000  0.000
                       Number of kpoints used =            98

                           -------------------------------
                               Symmetry and Constraints
                           -------------------------------

                      Maximum deviation from symmetry =  0.00000         ANG

                      Number of symmetry operations   =           1
                      Number of ionic constraints     =           3
                      Point group of crystal =     1: C1, 1, 1
                      Space group of crystal =     1: P1, P 1

             Set iprint > 1 for details on symmetry rotations/translations

                         Centre of mass is constrained
             Set iprint > 1 for details of linear ionic constraints

                         Number of cell constraints= 0
                         Cell constraints are:  1 2 3 4 5 6

                         External pressure/stress (GPa)
                          0.00000   0.00000   0.00000
                                    0.00000   0.00000
                                              0.00000
 
+---------------- MEMORY AND SCRATCH DISK ESTIMATES PER PROCESS --------------+
|                                                     Memory          Disk    |
| Baseline code, static data and system overhead      591.0 MB         0.0 MB |
| BLAS internal memory storage                          0.0 MB         0.0 MB |
| Model and support data                              595.8 MB         0.0 MB |
| Electronic energy minimisation requirements         188.8 MB         0.0 MB |
| Force calculation requirements                        8.8 MB         0.0 MB |
| Stress calculation requirements                       9.6 MB         0.0 MB |
|                                               ----------------------------- |
| Approx. total storage required per process         1375.6 MB         0.0 MB |
|                                                                             |
| Requirements will fluctuate during execution and may exceed these estimates |
+-----------------------------------------------------------------------------+
Calculating finite basis set correction with  3 cut-off energies.
Calculating total energy with cut-off of  790.000 eV.
------------------------------------------------------------------------ <-- SCF
SCF loop      Energy           Fermi           Energy gain       Timer   <-- SCF
                               energy          per atom          (sec)   <-- SCF
------------------------------------------------------------------------ <-- SCF
Initial  -7.01660402E+004  0.00000000E+000                        25.49  <-- SCF
      1  -7.61421172E+004  1.14509780E+001   1.10668092E+002      96.36  <-- SCF
      2  -7.80203558E+004  9.07309822E+000   3.47821968E+001     155.21  <-- SCF
      3  -7.81360060E+004  8.76983560E+000   2.14166958E+000     215.84  <-- SCF
      4  -7.81416950E+004  7.96153069E+000   1.05352317E-001     282.89  <-- SCF
      5  -7.81436126E+004  8.12379643E+000   3.55100868E-002     358.03  <-- SCF
      6  -7.81365130E+004  8.31814475E+000  -1.31473553E-001     426.79  <-- SCF
      7  -7.81343539E+004  8.31115427E+000  -3.99828132E-002     499.24  <-- SCF
      8  -7.81345950E+004  8.25745879E+000   4.46521570E-003     568.93  <-- SCF
      9  -7.81343189E+004  8.25068599E+000  -5.11328194E-003     636.63  <-- SCF
     10  -7.81343053E+004  8.25210706E+000  -2.51329722E-004     708.74  <-- SCF
     11  -7.81342564E+004  8.25110315E+000  -9.05779915E-004     775.87  <-- SCF
     12  -7.81342565E+004  8.25017862E+000   1.32536377E-006     844.97  <-- SCF
     13  -7.81342538E+004  8.24943113E+000  -5.05531204E-005     907.92  <-- SCF
     14  -7.81342539E+004  8.24929069E+000   1.84754275E-006     967.70  <-- SCF
     15  -7.81342536E+004  8.24933845E+000  -4.93971609E-006    1020.55  <-- SCF
     16  -7.81342536E+004  8.24928347E+000  -2.63935006E-007    1062.79  <-- SCF
     17  -7.81342536E+004  8.24933106E+000  -6.25727396E-008    1102.97  <-- SCF
------------------------------------------------------------------------ <-- SCF
 
Final energy, E             =  -78134.18066636     eV
Final free energy (E-TS)    =  -78134.25359284     eV
(energies not corrected for finite basis set)
 
NB est. 0K energy (E-0.5TS)      =  -78134.21712960     eV
 
Calculating total energy with cut-off of  795.000 eV.
------------------------------------------------------------------------ <-- SCF
SCF loop      Energy           Fermi           Energy gain       Timer   <-- SCF
                               energy          per atom          (sec)   <-- SCF
------------------------------------------------------------------------ <-- SCF
Initial  -7.81341806E+004  0.00000000E+000                      1113.91  <-- SCF
      1  -7.81342558E+004  8.24942279E+000   1.39240371E-003    1169.07  <-- SCF
      2  -7.81342560E+004  8.24942155E+000   3.59442877E-006    1224.68  <-- SCF
      3  -7.81343053E+004  8.24751845E+000   9.12341243E-004    1291.19  <-- SCF
      4  -7.81342574E+004  8.25047914E+000  -8.85560532E-004    1356.66  <-- SCF
      5  -7.81342544E+004  8.24938763E+000  -5.62772857E-005    1416.98  <-- SCF
      6  -7.81342546E+004  8.24920103E+000   4.13733585E-006    1475.21  <-- SCF
      7  -7.81342546E+004  8.24936175E+000  -1.34059998E-006    1524.17  <-- SCF
      8  -7.81342545E+004  8.24930345E+000  -6.24549317E-007    1564.56  <-- SCF
      9  -7.81342545E+004  8.24929514E+000   8.12785652E-009    1603.46  <-- SCF
------------------------------------------------------------------------ <-- SCF
 
Final energy, E             =  -78134.18158933     eV
Final free energy (E-TS)    =  -78134.25452379     eV
(energies not corrected for finite basis set)
 
NB est. 0K energy (E-0.5TS)      =  -78134.21805656     eV
 
Calculating total energy with cut-off of  800.000 eV.
------------------------------------------------------------------------ <-- SCF
SCF loop      Energy           Fermi           Energy gain       Timer   <-- SCF
                               energy          per atom          (sec)   <-- SCF
------------------------------------------------------------------------ <-- SCF
Initial  -7.81341815E+004  0.00000000E+000                      1616.46  <-- SCF
      1  -7.81342601E+004  8.24917949E+000   1.45516580E-003    1686.04  <-- SCF
      2  -7.81342602E+004  8.24917773E+000   2.29238002E-006    1748.21  <-- SCF
      3  -7.81344050E+004  8.24892422E+000   2.68146888E-003    1827.15  <-- SCF
      4  -7.81342638E+004  8.24856317E+000  -2.61509850E-003    1905.17  <-- SCF
      5  -7.81342548E+004  8.24957992E+000  -1.66530263E-004    1974.17  <-- SCF
      6  -7.81342557E+004  8.24948582E+000   1.66196625E-005    2045.80  <-- SCF
      7  -7.81342554E+004  8.24915538E+000  -4.42385580E-006    2109.91  <-- SCF
      8  -7.81342554E+004  8.24931050E+000  -1.19661806E-006    2160.33  <-- SCF
      9  -7.81342554E+004  8.24934660E+000  -1.01281860E-007    2207.16  <-- SCF
     10  -7.81342554E+004  8.24934922E+000  -6.93671501E-009    2253.15  <-- SCF
------------------------------------------------------------------------ <-- SCF
 
Final energy, E             =  -78134.18243993     eV
Final free energy (E-TS)    =  -78134.25536928     eV
(energies not corrected for finite basis set)
 
NB est. 0K energy (E-0.5TS)      =  -78134.21890460     eV
 
 For future reference: finite basis dEtot/dlog(Ecut) =      -0.140918eV
 Total energy corrected for finite basis set =  -78134.255372 eV

 ************************** Forces **************************
 *                                                          *
 *               Cartesian components (eV/A)                *
 * -------------------------------------------------------- *
 *                         x            y            z      *
 *                                                          *
 * Al              1      0.05381     -0.03495      0.05680 *
 * Al              2     -0.05939     -0.01549     -0.05924 *
 * Al              3     -0.00809     -0.03076      0.09046 *
 * Al              4     -0.03279      0.07640     -0.02987 *
 * Al              5     -0.03131     -0.09422      0.04513 *
 * Al              6      0.03624      0.15245      0.05473 *
 * Ti              1     -0.06660      0.09271     -0.00001 *
 * Ti              2     -0.02058     -0.02229      0.00730 *
 * Ti              3     -0.01344      0.05169      0.03063 *
 * Ti              4     -0.00919     -0.01093     -0.05652 *
 * Ti              5      0.05333     -0.00967     -0.08947 *
 * Ti              6      0.05692     -0.01759      0.03309 *
 * Ti              7     -0.05344     -0.01295     -0.03142 *
 * Ti              8     -0.03120      0.02567     -0.03996 *
 * Ti              9      0.02756     -0.07938      0.06953 *
 * Ti             10     -0.04167      0.15845      0.00700 *
 * Ti             11     -0.03872      0.02573     -0.06090 *
 * Ti             12     -0.03333     -0.05718      0.02934 *
 * Ti             13      0.02781      0.03836      0.03146 *
 * Ti             14     -0.00231     -0.03377      0.02012 *
 * Ti             15     -0.05541      0.14777     -0.05969 *
 * Ti             16     -0.02355      0.04040     -0.01172 *
 * Ti             17      0.01706      0.00795     -0.00627 *
 * Ti             18      0.04067     -0.04767     -0.09030 *
 * Ti             19     -0.03768      0.09091      0.03695 *
 * Ti             20     -0.03471     -0.01073     -0.17766 *
 * Ti             21      0.01380      0.06160     -0.00878 *
 * Ti             22     -0.04569      0.03743      0.06696 *
 * Ti             23     -0.01615      0.06543     -0.03628 *
 * Ti             24     -0.02586     -0.06592      0.00798 *
 * Ti             25      0.02127      0.03071      0.01770 *
 * Ti             26     -0.01059     -0.09763     -0.04573 *
 * Ti             27      0.04596      0.06799      0.03066 *
 * Ti             28     -0.00813     -0.06478      0.06471 *
 * Ti             29     -0.12853      0.07368     -0.01961 *
 * Ti             30      0.08602     -0.08314      0.03096 *
 * Ti             31     -0.03942      0.05642     -0.08075 *
 * Ti             32     -0.04928     -0.09498     -0.04208 *
 * Ti             33     -0.01558     -0.20883      0.09684 *
 * Ti             34     -0.02658      0.03039     -0.14146 *
 * Ti             35      0.02423      0.03949     -0.00002 *
 * Ti             36      0.00812     -0.11177     -0.03244 *
 * Ti             37     -0.00299      0.03868     -0.02947 *
 * Ti             38      0.00761     -0.12308     -0.06455 *
 * Ti             39      0.00290      0.06566      0.01173 *
 * Ti             40     -0.02047     -0.00457      0.10261 *
 * Ti             41      0.02430      0.10697     -0.01768 *
 * Ti             42      0.04237     -0.04554     -0.01969 *
 * Ti             43     -0.00187      0.05788     -0.03532 *
 * Ti             44     -0.01387     -0.11624     -0.05645 *
 * Ti             45     -0.06152      0.00666     -0.04426 *
 * Ti             46     -0.00984     -0.08856      0.11213 *
 * V               1      0.15114      0.08395      0.36702 *
 * V               2      0.32865     -0.14879     -0.03424 *
 *                                                          *
 ************************************************************

 ***************** Stress Tensor *****************
 *                                               *
 *          Cartesian components (GPa)           *
 * --------------------------------------------- *
 *             x             y             z     *
 *                                               *
 *  x      3.662248     -0.063762     -0.185576  *
 *  y     -0.063762      1.398892      0.935932  *
 *  z     -0.185576      0.935932      1.340967  *
 *                                               *
 *  Pressure:   -2.1340                          *
 *                                               *
 *************************************************

 Pseudo atomic calculation performed for Al 3s2 3p1

 Converged in 15 iterations to a total energy of -107.1308 eV

 Pseudo atomic calculation performed for Ti 3s2 3p6 3d2 4s2

 Converged in 34 iterations to a total energy of -1587.0236 eV

 Pseudo atomic calculation performed for V 3s2 3p6 3d3 4s2

 Converged in 35 iterations to a total energy of -2065.7874 eV
Charge spilling parameter for spin component 1 = 0.09%

            Orbital Populations       
     Ion    Atom   Orbital             Charge
  -------------------------------------------
     Al     1      S                    0.935
     Al     1      Px                   0.676
     Al     1      Py                   0.687
     Al     1      Pz                   0.708
     Al     2      S                    0.952
     Al     2      Px                   0.640
     Al     2      Py                   0.703
     Al     2      Pz                   0.710
     Al     3      S                    0.942
     Al     3      Px                   0.684
     Al     3      Py                   0.685
     Al     3      Pz                   0.712
     Al     4      S                    0.971
     Al     4      Px                   0.651
     Al     4      Py                   0.678
     Al     4      Pz                   0.685
     Al     5      S                    0.968
     Al     5      Px                   0.692
     Al     5      Py                   0.700
     Al     5      Pz                   0.646
     Al     6      S                    0.974
     Al     6      Px                   0.673
     Al     6      Py                   0.655
     Al     6      Pz                   0.689
     Ti     1      S                    2.002
     Ti     1      Px                   2.005
     Ti     1      Py                   2.004
     Ti     1      Pz                   2.005
     Ti     1      S                    0.310
     Ti     1      Dzz                  0.605
     Ti     1      Dzy                  0.467
     Ti     1      Dzx                  0.509
     Ti     1      Dxx-yy               0.569
     Ti     1      Dxy                  0.562
     Ti     1      Px                   0.324
     Ti     1      Py                   0.321
     Ti     1      Pz                   0.283
     Ti     2      S                    2.002
     Ti     2      Px                   2.004
     Ti     2      Py                   2.004
     Ti     2      Pz                   2.004
     Ti     2      S                    0.325
     Ti     2      Dzz                  0.596
     Ti     2      Dzy                  0.477
     Ti     2      Dzx                  0.494
     Ti     2      Dxx-yy               0.568
     Ti     2      Dxy                  0.569
     Ti     2      Px                   0.324
     Ti     2      Py                   0.314
     Ti     2      Pz                   0.313
     Ti     3      S                    2.002
     Ti     3      Px                   2.005
     Ti     3      Py                   2.005
     Ti     3      Pz                   2.005
     Ti     3      S                    0.314
     Ti     3      Dzz                  0.611
     Ti     3      Dzy                  0.495
     Ti     3      Dzx                  0.460
     Ti     3      Dxx-yy               0.573
     Ti     3      Dxy                  0.559
     Ti     3      Px                   0.322
     Ti     3      Py                   0.334
     Ti     3      Pz                   0.300
     Ti     4      S                    2.002
     Ti     4      Px                   2.004
     Ti     4      Py                   2.005
     Ti     4      Pz                   2.005
     Ti     4      S                    0.311
     Ti     4      Dzz                  0.615
     Ti     4      Dzy                  0.486
     Ti     4      Dzx                  0.455
     Ti     4      Dxx-yy               0.569
     Ti     4      Dxy                  0.564
     Ti     4      Px                   0.330
     Ti     4      Py                   0.336
     Ti     4      Pz                   0.334
     Ti     5      S                    2.002
     Ti     5      Px                   2.004
     Ti     5      Py                   2.004
     Ti     5      Pz                   2.005
     Ti     5      S                    0.316
     Ti     5      Dzz                  0.630
     Ti     5      Dzy                  0.493
     Ti     5      Dzx                  0.463
     Ti     5      Dxx-yy               0.581
     Ti     5      Dxy                  0.531
     Ti     5      Px                   0.327
     Ti     5      Py                   0.292
     Ti     5      Pz                   0.313
     Ti     6      S                    2.002
     Ti     6      Px                   2.004
     Ti     6      Py                   2.004
     Ti     6      Pz                   2.004
     Ti     6      S                    0.321
     Ti     6      Dzz                  0.594
     Ti     6      Dzy                  0.509
     Ti     6      Dzx                  0.474
     Ti     6      Dxx-yy               0.562
     Ti     6      Dxy                  0.564
     Ti     6      Px                   0.321
     Ti     6      Py                   0.324
     Ti     6      Pz                   0.317
     Ti     7      S                    2.002
     Ti     7      Px                   2.004
     Ti     7      Py                   2.005
     Ti     7      Pz                   2.004
     Ti     7      S                    0.325
     Ti     7      Dzz                  0.584
     Ti     7      Dzy                  0.512
     Ti     7      Dzx                  0.476
     Ti     7      Dxx-yy               0.524
     Ti     7      Dxy                  0.602
     Ti     7      Px                   0.302
     Ti     7      Py                   0.339
     Ti     7      Pz                   0.327
     Ti     8      S                    2.002
     Ti     8      Px                   2.005
     Ti     8      Py                   2.005
     Ti     8      Pz                   2.005
     Ti     8      S                    0.318
     Ti     8      Dzz                  0.620
     Ti     8      Dzy                  0.467
     Ti     8      Dzx                  0.474
     Ti     8      Dxx-yy               0.567
     Ti     8      Dxy                  0.575
     Ti     8      Px                   0.328
     Ti     8      Py                   0.328
     Ti     8      Pz                   0.286
     Ti     9      S                    2.002
     Ti     9      Px                   2.005
     Ti     9      Py                   2.004
     Ti     9      Pz                   2.004
     Ti     9      S                    0.327
     Ti     9      Dzz                  0.590
     Ti     9      Dzy                  0.461
     Ti     9      Dzx                  0.514
     Ti     9      Dxx-yy               0.551
     Ti     9      Dxy                  0.567
     Ti     9      Px                   0.330
     Ti     9      Py                   0.309
     Ti     9      Pz                   0.328
     Ti    10      S                    2.002
     Ti    10      Px                   2.005
     Ti    10      Py                   2.005
     Ti    10      Pz                   2.005
     Ti    10      S                    0.341
     Ti    10      Dzz                  0.621
     Ti    10      Dzy                  0.498
     Ti    10      Dzx                  0.483
     Ti    10      Dxx-yy               0.534
     Ti    10      Dxy                  0.609
     Ti    10      Px                   0.277
     Ti    10      Py                   0.310
     Ti    10      Pz                   0.310
     Ti    11      S                    2.003
     Ti    11      Px                   2.005
     Ti    11      Py                   2.005
     Ti    11      Pz                   2.005
     Ti    11      S                    0.321
     Ti    11      Dzz                  0.601
     Ti    11      Dzy                  0.505
     Ti    11      Dzx                  0.460
     Ti    11      Dxx-yy               0.568
     Ti    11      Dxy                  0.562
     Ti    11      Px                   0.334
     Ti    11      Py                   0.341
     Ti    11      Pz                   0.318
     Ti    12      S                    2.002
     Ti    12      Px                   2.005
     Ti    12      Py                   2.005
     Ti    12      Pz                   2.005
     Ti    12      S                    0.303
     Ti    12      Dzz                  0.619
     Ti    12      Dzy                  0.466
     Ti    12      Dzx                  0.463
     Ti    12      Dxx-yy               0.573
     Ti    12      Dxy                  0.572
     Ti    12      Px                   0.332
     Ti    12      Py                   0.325
     Ti    12      Pz                   0.340
     Ti    13      S                    2.003
     Ti    13      Px                   2.005
     Ti    13      Py                   2.005
     Ti    13      Pz                   2.005
     Ti    13      S                    0.318
     Ti    13      Dzz                  0.597
     Ti    13      Dzy                  0.484
     Ti    13      Dzx                  0.471
     Ti    13      Dxx-yy               0.565
     Ti    13      Dxy                  0.564
     Ti    13      Px                   0.333
     Ti    13      Py                   0.335
     Ti    13      Pz                   0.313
     Ti    14      S                    2.002
     Ti    14      Px                   2.005
     Ti    14      Py                   2.005
     Ti    14      Pz                   2.005
     Ti    14      S                    0.329
     Ti    14      Dzz                  0.613
     Ti    14      Dzy                  0.495
     Ti    14      Dzx                  0.485
     Ti    14      Dxx-yy               0.534
     Ti    14      Dxy                  0.583
     Ti    14      Px                   0.294
     Ti    14      Py                   0.345
     Ti    14      Pz                   0.305
     Ti    15      S                    2.002
     Ti    15      Px                   2.004
     Ti    15      Py                   2.005
     Ti    15      Pz                   2.004
     Ti    15      S                    0.337
     Ti    15      Dzz                  0.581
     Ti    15      Dzy                  0.482
     Ti    15      Dzx                  0.525
     Ti    15      Dxx-yy               0.536
     Ti    15      Dxy                  0.583
     Ti    15      Px                   0.289
     Ti    15      Py                   0.321
     Ti    15      Pz                   0.332
     Ti    16      S                    2.002
     Ti    16      Px                   2.005
     Ti    16      Py                   2.005
     Ti    16      Pz                   2.005
     Ti    16      S                    0.311
     Ti    16      Dzz                  0.606
     Ti    16      Dzy                  0.496
     Ti    16      Dzx                  0.481
     Ti    16      Dxx-yy               0.580
     Ti    16      Dxy                  0.550
     Ti    16      Px                   0.327
     Ti    16      Py                   0.300
     Ti    16      Pz                   0.298
     Ti    17      S                    2.002
     Ti    17      Px                   2.004
     Ti    17      Py                   2.005
     Ti    17      Pz                   2.005
     Ti    17      S                    0.319
     Ti    17      Dzz                  0.599
     Ti    17      Dzy                  0.505
     Ti    17      Dzx                  0.465
     Ti    17      Dxx-yy               0.570
     Ti    17      Dxy                  0.556
     Ti    17      Px                   0.333
     Ti    17      Py                   0.344
     Ti    17      Pz                   0.319
     Ti    18      S                    2.002
     Ti    18      Px                   2.005
     Ti    18      Py                   2.005
     Ti    18      Pz                   2.005
     Ti    18      S                    0.326
     Ti    18      Dzz                  0.621
     Ti    18      Dzy                  0.496
     Ti    18      Dzx                  0.462
     Ti    18      Dxx-yy               0.595
     Ti    18      Dxy                  0.537
     Ti    18      Px                   0.337
     Ti    18      Py                   0.305
     Ti    18      Pz                   0.317
     Ti    19      S                    2.002
     Ti    19      Px                   2.005
     Ti    19      Py                   2.005
     Ti    19      Pz                   2.005
     Ti    19      S                    0.321
     Ti    19      Dzz                  0.591
     Ti    19      Dzy                  0.483
     Ti    19      Dzx                  0.484
     Ti    19      Dxx-yy               0.558
     Ti    19      Dxy                  0.574
     Ti    19      Px                   0.335
     Ti    19      Py                   0.331
     Ti    19      Pz                   0.324
     Ti    20      S                    2.002
     Ti    20      Px                   2.004
     Ti    20      Py                   2.004
     Ti    20      Pz                   2.005
     Ti    20      S                    0.327
     Ti    20      Dzz                  0.585
     Ti    20      Dzy                  0.505
     Ti    20      Dzx                  0.491
     Ti    20      Dxx-yy               0.536
     Ti    20      Dxy                  0.597
     Ti    20      Px                   0.294
     Ti    20      Py                   0.332
     Ti    20      Pz                   0.283
     Ti    21      S                    2.002
     Ti    21      Px                   2.004
     Ti    21      Py                   2.004
     Ti    21      Pz                   2.004
     Ti    21      S                    0.356
     Ti    21      Dzz                  0.604
     Ti    21      Dzy                  0.484
     Ti    21      Dzx                  0.497
     Ti    21      Dxx-yy               0.538
     Ti    21      Dxy                  0.584
     Ti    21      Px                   0.288
     Ti    21      Py                   0.311
     Ti    21      Pz                   0.338
     Ti    22      S                    2.002
     Ti    22      Px                   2.005
     Ti    22      Py                   2.004
     Ti    22      Pz                   2.005
     Ti    22      S                    0.309
     Ti    22      Dzz                  0.621
     Ti    22      Dzy                  0.477
     Ti    22      Dzx                  0.475
     Ti    22      Dxx-yy               0.562
     Ti    22      Dxy                  0.572
     Ti    22      Px                   0.325
     Ti    22      Py                   0.327
     Ti    22      Pz                   0.275
     Ti    23      S                    2.002
     Ti    23      Px                   2.004
     Ti    23      Py                   2.004
     Ti    23      Pz                   2.005
     Ti    23      S                    0.310
     Ti    23      Dzz                  0.612
     Ti    23      Dzy                  0.484
     Ti    23      Dzx                  0.485
     Ti    23      Dxx-yy               0.559
     Ti    23      Dxy                  0.566
     Ti    23      Px                   0.323
     Ti    23      Py                   0.337
     Ti    23      Pz                   0.296
     Ti    24      S                    2.002
     Ti    24      Px                   2.004
     Ti    24      Py                   2.004
     Ti    24      Pz                   2.004
     Ti    24      S                    0.318
     Ti    24      Dzz                  0.612
     Ti    24      Dzy                  0.477
     Ti    24      Dzx                  0.474
     Ti    24      Dxx-yy               0.553
     Ti    24      Dxy                  0.568
     Ti    24      Px                   0.335
     Ti    24      Py                   0.330
     Ti    24      Pz                   0.326
     Ti    25      S                    2.002
     Ti    25      Px                   2.004
     Ti    25      Py                   2.005
     Ti    25      Pz                   2.005
     Ti    25      S                    0.315
     Ti    25      Dzz                  0.603
     Ti    25      Dzy                  0.491
     Ti    25      Dzx                  0.473
     Ti    25      Dxx-yy               0.563
     Ti    25      Dxy                  0.572
     Ti    25      Px                   0.336
     Ti    25      Py                   0.331
     Ti    25      Pz                   0.328
     Ti    26      S                    2.003
     Ti    26      Px                   2.005
     Ti    26      Py                   2.005
     Ti    26      Pz                   2.005
     Ti    26      S                    0.334
     Ti    26      Dzz                  0.592
     Ti    26      Dzy                  0.524
     Ti    26      Dzx                  0.466
     Ti    26      Dxx-yy               0.593
     Ti    26      Dxy                  0.541
     Ti    26      Px                   0.321
     Ti    26      Py                   0.305
     Ti    26      Pz                   0.310
     Ti    27      S                    2.002
     Ti    27      Px                   2.004
     Ti    27      Py                   2.005
     Ti    27      Pz                   2.004
     Ti    27      S                    0.327
     Ti    27      Dzz                  0.620
     Ti    27      Dzy                  0.492
     Ti    27      Dzx                  0.480
     Ti    27      Dxx-yy               0.586
     Ti    27      Dxy                  0.545
     Ti    27      Px                   0.319
     Ti    27      Py                   0.278
     Ti    27      Pz                   0.311
     Ti    28      S                    2.002
     Ti    28      Px                   2.004
     Ti    28      Py                   2.004
     Ti    28      Pz                   2.005
     Ti    28      S                    0.330
     Ti    28      Dzz                  0.604
     Ti    28      Dzy                  0.495
     Ti    28      Dzx                  0.483
     Ti    28      Dxx-yy               0.576
     Ti    28      Dxy                  0.552
     Ti    28      Px                   0.321
     Ti    28      Py                   0.319
     Ti    28      Pz                   0.301
     Ti    29      S                    2.003
     Ti    29      Px                   2.005
     Ti    29      Py                   2.005
     Ti    29      Pz                   2.005
     Ti    29      S                    0.306
     Ti    29      Dzz                  0.592
     Ti    29      Dzy                  0.483
     Ti    29      Dzx                  0.501
     Ti    29      Dxx-yy               0.560
     Ti    29      Dxy                  0.550
     Ti    29      Px                   0.351
     Ti    29      Py                   0.335
     Ti    29      Pz                   0.301
     Ti    30      S                    2.002
     Ti    30      Px                   2.005
     Ti    30      Py                   2.005
     Ti    30      Pz                   2.004
     Ti    30      S                    0.334
     Ti    30      Dzz                  0.600
     Ti    30      Dzy                  0.486
     Ti    30      Dzx                  0.478
     Ti    30      Dxx-yy               0.541
     Ti    30      Dxy                  0.607
     Ti    30      Px                   0.303
     Ti    30      Py                   0.335
     Ti    30      Pz                   0.317
     Ti    31      S                    2.002
     Ti    31      Px                   2.005
     Ti    31      Py                   2.005
     Ti    31      Pz                   2.005
     Ti    31      S                    0.315
     Ti    31      Dzz                  0.584
     Ti    31      Dzy                  0.484
     Ti    31      Dzx                  0.489
     Ti    31      Dxx-yy               0.556
     Ti    31      Dxy                  0.572
     Ti    31      Px                   0.338
     Ti    31      Py                   0.340
     Ti    31      Pz                   0.320
     Ti    32      S                    2.002
     Ti    32      Px                   2.004
     Ti    32      Py                   2.004
     Ti    32      Pz                   2.005
     Ti    32      S                    0.322
     Ti    32      Dzz                  0.603
     Ti    32      Dzy                  0.488
     Ti    32      Dzx                  0.488
     Ti    32      Dxx-yy               0.562
     Ti    32      Dxy                  0.542
     Ti    32      Px                   0.336
     Ti    32      Py                   0.320
     Ti    32      Pz                   0.300
     Ti    33      S                    2.003
     Ti    33      Px                   2.004
     Ti    33      Py                   2.005
     Ti    33      Pz                   2.005
     Ti    33      S                    0.332
     Ti    33      Dzz                  0.595
     Ti    33      Dzy                  0.495
     Ti    33      Dzx                  0.479
     Ti    33      Dxx-yy               0.550
     Ti    33      Dxy                  0.585
     Ti    33      Px                   0.306
     Ti    33      Py                   0.330
     Ti    33      Pz                   0.307
     Ti    34      S                    2.002
     Ti    34      Px                   2.004
     Ti    34      Py                   2.005
     Ti    34      Pz                   2.005
     Ti    34      S                    0.317
     Ti    34      Dzz                  0.594
     Ti    34      Dzy                  0.508
     Ti    34      Dzx                  0.469
     Ti    34      Dxx-yy               0.568
     Ti    34      Dxy                  0.548
     Ti    34      Px                   0.345
     Ti    34      Py                   0.321
     Ti    34      Pz                   0.309
     Ti    35      S                    2.002
     Ti    35      Px                   2.004
     Ti    35      Py                   2.005
     Ti    35      Pz                   2.005
     Ti    35      S                    0.320
     Ti    35      Dzz                  0.618
     Ti    35      Dzy                  0.488
     Ti    35      Dzx                  0.477
     Ti    35      Dxx-yy               0.570
     Ti    35      Dxy                  0.561
     Ti    35      Px                   0.331
     Ti    35      Py                   0.315
     Ti    35      Pz                   0.280
     Ti    36      S                    2.002
     Ti    36      Px                   2.004
     Ti    36      Py                   2.005
     Ti    36      Pz                   2.005
     Ti    36      S                    0.328
     Ti    36      Dzz                  0.593
     Ti    36      Dzy                  0.479
     Ti    36      Dzx                  0.515
     Ti    36      Dxx-yy               0.553
     Ti    36      Dxy                  0.566
     Ti    36      Px                   0.332
     Ti    36      Py                   0.305
     Ti    36      Pz                   0.316
     Ti    37      S                    2.002
     Ti    37      Px                   2.004
     Ti    37      Py                   2.004
     Ti    37      Pz                   2.004
     Ti    37      S                    0.319
     Ti    37      Dzz                  0.600
     Ti    37      Dzy                  0.480
     Ti    37      Dzx                  0.477
     Ti    37      Dxx-yy               0.555
     Ti    37      Dxy                  0.574
     Ti    37      Px                   0.337
     Ti    37      Py                   0.338
     Ti    37      Pz                   0.328
     Ti    38      S                    2.002
     Ti    38      Px                   2.004
     Ti    38      Py                   2.004
     Ti    38      Pz                   2.004
     Ti    38      S                    0.326
     Ti    38      Dzz                  0.598
     Ti    38      Dzy                  0.494
     Ti    38      Dzx                  0.472
     Ti    38      Dxx-yy               0.598
     Ti    38      Dxy                  0.531
     Ti    38      Px                   0.339
     Ti    38      Py                   0.300
     Ti    38      Pz                   0.322
     Ti    39      S                    2.002
     Ti    39      Px                   2.004
     Ti    39      Py                   2.005
     Ti    39      Pz                   2.005
     Ti    39      S                    0.319
     Ti    39      Dzz                  0.613
     Ti    39      Dzy                  0.474
     Ti    39      Dzx                  0.472
     Ti    39      Dxx-yy               0.579
     Ti    39      Dxy                  0.564
     Ti    39      Px                   0.336
     Ti    39      Py                   0.320
     Ti    39      Pz                   0.309
     Ti    40      S                    2.002
     Ti    40      Px                   2.004
     Ti    40      Py                   2.004
     Ti    40      Pz                   2.004
     Ti    40      S                    0.317
     Ti    40      Dzz                  0.619
     Ti    40      Dzy                  0.478
     Ti    40      Dzx                  0.488
     Ti    40      Dxx-yy               0.593
     Ti    40      Dxy                  0.535
     Ti    40      Px                   0.330
     Ti    40      Py                   0.289
     Ti    40      Pz                   0.297
     Ti    41      S                    2.002
     Ti    41      Px                   2.004
     Ti    41      Py                   2.005
     Ti    41      Pz                   2.005
     Ti    41      S                    0.305
     Ti    41      Dzz                  0.601
     Ti    41      Dzy                  0.486
     Ti    41      Dzx                  0.491
     Ti    41      Dxx-yy               0.561
     Ti    41      Dxy                  0.569
     Ti    41      Px                   0.320
     Ti    41      Py                   0.323
     Ti    41      Pz                   0.305
     Ti    42      S                    2.002
     Ti    42      Px                   2.005
     Ti    42      Py                   2.005
     Ti    42      Pz                   2.005
     Ti    42      S                    0.333
     Ti    42      Dzz                  0.612
     Ti    42      Dzy                  0.463
     Ti    42      Dzx                  0.493
     Ti    42      Dxx-yy               0.582
     Ti    42      Dxy                  0.561
     Ti    42      Px                   0.326
     Ti    42      Py                   0.315
     Ti    42      Pz                   0.320
     Ti    43      S                    2.002
     Ti    43      Px                   2.004
     Ti    43      Py                   2.004
     Ti    43      Pz                   2.005
     Ti    43      S                    0.318
     Ti    43      Dzz                  0.603
     Ti    43      Dzy                  0.486
     Ti    43      Dzx                  0.480
     Ti    43      Dxx-yy               0.567
     Ti    43      Dxy                  0.566
     Ti    43      Px                   0.328
     Ti    43      Py                   0.332
     Ti    43      Pz                   0.303
     Ti    44      S                    2.002
     Ti    44      Px                   2.004
     Ti    44      Py                   2.004
     Ti    44      Pz                   2.004
     Ti    44      S                    0.332
     Ti    44      Dzz                  0.597
     Ti    44      Dzy                  0.504
     Ti    44      Dzx                  0.482
     Ti    44      Dxx-yy               0.593
     Ti    44      Dxy                  0.541
     Ti    44      Px                   0.321
     Ti    44      Py                   0.306
     Ti    44      Pz                   0.318
     Ti    45      S                    2.002
     Ti    45      Px                   2.004
     Ti    45      Py                   2.004
     Ti    45      Pz                   2.004
     Ti    45      S                    0.337
     Ti    45      Dzz                  0.584
     Ti    45      Dzy                  0.508
     Ti    45      Dzx                  0.483
     Ti    45      Dxx-yy               0.627
     Ti    45      Dxy                  0.516
     Ti    45      Px                   0.338
     Ti    45      Py                   0.256
     Ti    45      Pz                   0.343
     Ti    46      S                    2.002
     Ti    46      Px                   2.004
     Ti    46      Py                   2.004
     Ti    46      Pz                   2.005
     Ti    46      S                    0.319
     Ti    46      Dzz                  0.614
     Ti    46      Dzy                  0.488
     Ti    46      Dzx                  0.486
     Ti    46      Dxx-yy               0.542
     Ti    46      Dxy                  0.574
     Ti    46      Px                   0.330
     Ti    46      Py                   0.334
     Ti    46      Pz                   0.305
      V     1      S                    2.001
      V     1      Px                   2.003
      V     1      Py                   2.003
      V     1      Pz                   2.003
      V     1      Dzz                  0.871
      V     1      Dzy                  0.640
      V     1      Dzx                  0.678
      V     1      Dxx-yy               0.751
      V     1      Dxy                  0.779
      V     1      S                    0.376
      V     1      Px                   0.341
      V     1      Py                   0.318
      V     1      Pz                   0.299
      V     2      S                    2.001
      V     2      Px                   2.003
      V     2      Py                   2.003
      V     2      Pz                   2.003
      V     2      Dzz                  0.795
      V     2      Dzy                  0.652
      V     2      Dzx                  0.747
      V     2      Dxx-yy               0.681
      V     2      Dxy                  0.845
      V     2      S                    0.384
      V     2      Px                   0.306
      V     2      Py                   0.332
      V     2      Pz                   0.298
  -------------------------------------------
                           Total:     596.000
  -------------------------------------------

     Atomic Populations (Mulliken)
     -----------------------------
Species          Ion     s       p       d       f      Total   Charge (e)
==========================================================================
  Al              1     0.935   2.071   0.000   0.000   3.006    -0.006
  Al              2     0.952   2.054   0.000   0.000   3.006    -0.006
  Al              3     0.942   2.081   0.000   0.000   3.022    -0.022
  Al              4     0.971   2.014   0.000   0.000   2.984     0.016
  Al              5     0.968   2.038   0.000   0.000   3.006    -0.006
  Al              6     0.974   2.017   0.000   0.000   2.991     0.009
  Ti              1     2.312   6.943   2.713   0.000  11.967     0.033
  Ti              2     2.327   6.964   2.704   0.000  11.995     0.005
  Ti              3     2.316   6.970   2.697   0.000  11.984     0.016
  Ti              4     2.313   7.013   2.690   0.000  12.016    -0.016
  Ti              5     2.318   6.945   2.698   0.000  11.961     0.039
  Ti              6     2.323   6.975   2.703   0.000  12.001    -0.001
  Ti              7     2.327   6.981   2.698   0.000  12.006    -0.006
  Ti              8     2.320   6.956   2.703   0.000  11.979     0.021
  Ti              9     2.329   6.980   2.683   0.000  11.992     0.008
  Ti             10     2.343   6.911   2.746   0.000  12.000    -0.000
  Ti             11     2.324   7.007   2.697   0.000  12.028    -0.028
  Ti             12     2.306   7.012   2.692   0.000  12.010    -0.010
  Ti             13     2.321   6.995   2.681   0.000  11.996     0.004
  Ti             14     2.331   6.958   2.711   0.000  12.000     0.000
  Ti             15     2.339   6.955   2.707   0.000  12.000    -0.000
  Ti             16     2.314   6.941   2.714   0.000  11.968     0.032
  Ti             17     2.322   7.010   2.695   0.000  12.027    -0.027
  Ti             18     2.328   6.974   2.710   0.000  12.012    -0.012
  Ti             19     2.323   7.005   2.690   0.000  12.018    -0.018
  Ti             20     2.329   6.922   2.715   0.000  11.966     0.034
  Ti             21     2.358   6.950   2.706   0.000  12.014    -0.014
  Ti             22     2.312   6.942   2.706   0.000  11.960     0.040
  Ti             23     2.312   6.970   2.706   0.000  11.987     0.013
  Ti             24     2.320   7.003   2.684   0.000  12.007    -0.007
  Ti             25     2.317   7.009   2.702   0.000  12.028    -0.028
  Ti             26     2.336   6.951   2.717   0.000  12.004    -0.004
  Ti             27     2.329   6.922   2.724   0.000  11.974     0.026
  Ti             28     2.333   6.955   2.709   0.000  11.997     0.003
  Ti             29     2.309   7.003   2.685   0.000  11.997     0.003
  Ti             30     2.336   6.968   2.712   0.000  12.017    -0.017
  Ti             31     2.317   7.013   2.686   0.000  12.016    -0.016
  Ti             32     2.324   6.968   2.683   0.000  11.976     0.024
  Ti             33     2.335   6.958   2.705   0.000  11.998     0.002
  Ti             34     2.319   6.989   2.687   0.000  11.994     0.006
  Ti             35     2.322   6.940   2.713   0.000  11.975     0.025
  Ti             36     2.330   6.967   2.706   0.000  12.004    -0.004
  Ti             37     2.321   7.014   2.686   0.000  12.021    -0.021
  Ti             38     2.328   6.973   2.693   0.000  11.995     0.005
  Ti             39     2.321   6.978   2.702   0.000  12.002    -0.002
  Ti             40     2.319   6.929   2.713   0.000  11.961     0.039
  Ti             41     2.307   6.962   2.709   0.000  11.978     0.022
  Ti             42     2.335   6.976   2.712   0.000  12.023    -0.023
  Ti             43     2.320   6.976   2.702   0.000  11.999     0.001
  Ti             44     2.334   6.958   2.717   0.000  12.008    -0.008
  Ti             45     2.338   6.948   2.718   0.000  12.005    -0.005
  Ti             46     2.321   6.981   2.705   0.000  12.007    -0.007
  V               1     2.377   6.966   3.718   0.000  13.062    -0.062
  V               2     2.385   6.945   3.721   0.000  13.050    -0.050
==========================================================================

                 Bond                   Population      Length (A)
======================================================================
             Ti 16 -- V 1                    0.24        2.76805
             Ti 1  -- V 2                    0.21        2.77329
             Ti 35 -- Ti 36                  0.18        2.78501
             Ti 41 -- V 2                    0.23        2.78736
             Ti 31 -- Ti 32                  0.16        2.78747
             Ti 5  -- Ti 6                   0.14        2.79094
             Ti 16 -- Ti 29                  0.17        2.79409
              Al 3 -- Ti 34                  0.24        2.80011
              Al 1 -- Ti 1                   0.23        2.80198
             Ti 7  -- V 1                    0.20        2.80245
             Ti 27 -- Ti 28                  0.16        2.80288
             Ti 45 -- Ti 46                  0.15        2.80526
              Al 2 -- Ti 33                  0.26        2.80800
              Al 1 -- Ti 10                  0.26        2.81055
              Al 4 -- V 2                    0.24        2.81342
             Ti 15 -- Ti 16                  0.17        2.81394
              Al 5 -- Ti 39                  0.25        2.81398
              Al 1 -- Ti 5                   0.22        2.81838
             Ti 1  -- Ti 34                  0.21        2.81946
             Ti 23 -- Ti 33                  0.17        2.82101
              Al 1 -- Ti 40                  0.26        2.82163
             Ti 22 -- Ti 33                  0.25        2.82175
             Ti 40 -- V 2                    0.18        2.82222
             Ti 1  -- V 1                    0.27        2.82390
             Ti 29 -- Ti 30                  0.16        2.82493
              Al 1 -- Ti 23                  0.24        2.82539
             Ti 11 -- Ti 12                  0.16        2.82594
              Al 5 -- Al 6                   0.27        2.82661
              Al 4 -- Ti 40                  0.26        2.82855
             Ti 7  -- Ti 38                  0.20        2.82895
             Ti 10 -- Ti 14                  0.21        2.82903
             Ti 40 -- V 1                    0.23        2.83046
              Al 2 -- Ti 14                  0.22        2.83094
             Ti 16 -- Ti 33                  0.18        2.83264
             Ti 21 -- Ti 22                  0.21        2.83815
              Al 3 -- Ti 3                   0.23        2.84045
              Al 1 -- V 1                    0.21        2.84049
             Ti 22 -- Ti 29                  0.17        2.84068
             Ti 37 -- Ti 46                  0.19        2.84105
             Ti 22 -- V 2                    0.28        2.84125
             Ti 17 -- Ti 18                  0.16        2.84187
             Ti 6  -- Ti 17                  0.21        2.84285
              Al 6 -- Ti 40                  0.27        2.84359
             Ti 5  -- V 2                    0.19        2.84393
              Al 6 -- Ti 44                  0.27        2.84552
             Ti 22 -- Ti 34                  0.15        2.84559
             Ti 26 -- Ti 39                  0.17        2.84570
             Ti 23 -- V 1                    0.23        2.84760
             Ti 14 -- Ti 15                  0.14        2.84780
             Ti 41 -- Ti 42                  0.17        2.84825
             Ti 11 -- V 1                    0.29        2.84829
              Al 2 -- Ti 45                  0.24        2.84839
              Al 4 -- Ti 45                  0.27        2.84958
             Ti 8  -- Ti 9                   0.14        2.84998
             Ti 1  -- Ti 7                   0.15        2.85071
             Ti 28 -- Ti 37                  0.17        2.85137
             Ti 17 -- Ti 28                  0.18        2.85153
             Ti 25 -- Ti 26                  0.14        2.85160
             Ti 34 -- V 2                    0.17        2.85187
             Ti 23 -- Ti 24                  0.19        2.85242
             Ti 6  -- Ti 11                  0.18        2.85333
             Ti 14 -- Ti 31                  0.18        2.85398
              Al 5 -- Ti 10                  0.28        2.85539
             Ti 4  -- Ti 9                   0.25        2.85544
              Al 2 -- Ti 22                  0.21        2.85582
              Al 4 -- Ti 22                  0.24        2.85676
             Ti 9  -- Ti 36                  0.21        2.85760
             Ti 13 -- Ti 14                  0.19        2.85761
             Ti 15 -- Ti 46                  0.17        2.85970
             Ti 33 -- Ti 41                  0.16        2.85978
             Ti 3  -- Ti 4                   0.16        2.85981
             Ti 7  -- Ti 12                  0.23        2.86237
             Ti 8  -- Ti 38                  0.17        2.86252
              Al 5 -- Ti 35                  0.23        2.86287
             Ti 27 -- Ti 32                  0.18        2.86329
              Al 1 -- Ti 16                  0.25        2.86344
             Ti 20 -- Ti 31                  0.15        2.86465
             Ti 20 -- Ti 21                  0.22        2.86475
             Ti 25 -- Ti 30                  0.15        2.86602
             Ti 34 -- Ti 41                  0.20        2.86617
              Al 6 -- Ti 46                  0.24        2.86688
              Al 3 -- Ti 43                  0.23        2.86703
             Ti 3  -- Ti 36                  0.15        2.86708
              Al 2 -- Ti 16                  0.23        2.86793
              Al 3 -- Ti 41                  0.22        2.86815
             Ti 4  -- Ti 36                  0.23        2.86855
              Al 2 -- Ti 20                  0.24        2.86879
             Ti 12 -- Ti 29                  0.13        2.86942
             Ti 1  -- Ti 6                   0.17        2.86944
             Ti 8  -- Ti 12                  0.16        2.86952
              Al 5 -- Ti 44                  0.28        2.86969
             Ti 9  -- Ti 10                  0.20        2.86994
              Al 4 -- Al 5                   0.24        2.87037
             Ti 18 -- Ti 19                  0.17        2.87054
             Ti 17 -- Ti 29                  0.25        2.87204
             Ti 13 -- Ti 42                  0.15        2.87205
             Ti 11 -- Ti 16                  0.13        2.87208
             Ti 34 -- Ti 40                  0.15        2.87331
             Ti 18 -- Ti 30                  0.22        2.87384
              Al 2 -- Ti 32                  0.22        2.87433
             Ti 17 -- Ti 24                  0.16        2.87440
              Al 4 -- Ti 5                   0.26        2.87537
             Ti 11 -- Ti 29                  0.24        2.87575
             Ti 11 -- Ti 46                  0.17        2.87601
              Al 4 -- Ti 20                  0.27        2.87768
             Ti 23 -- Ti 28                  0.17        2.87775
             Ti 2  -- Ti 3                   0.16        2.87817
             Ti 4  -- Ti 21                  0.17        2.87897
             Ti 19 -- Ti 24                  0.16        2.87973
             Ti 29 -- Ti 33                  0.13        2.87985
             Ti 37 -- Ti 38                  0.15        2.88102
             Ti 1  -- Ti 2                   0.19        2.88287
             Ti 7  -- Ti 23                  0.14        2.88299
             Ti 24 -- Ti 25                  0.14        2.88490
             Ti 14 -- Ti 44                  0.23        2.88514
             Ti 3  -- Ti 7                   0.17        2.88587
             Ti 39 -- Ti 42                  0.15        2.88596
             Ti 35 -- Ti 38                  0.17        2.88612
             Ti 15 -- Ti 44                  0.17        2.88613
             Ti 18 -- Ti 31                  0.18        2.88672
             Ti 21 -- Ti 28                  0.19        2.88674
             Ti 25 -- Ti 32                  0.16        2.88699
             Ti 5  -- Ti 36                  0.15        2.88764
             Ti 3  -- Ti 19                  0.24        2.88797
             Ti 9  -- Ti 27                  0.18        2.88799
             Ti 20 -- Ti 35                  0.18        2.88833
             Ti 13 -- Ti 31                  0.25        2.88849
             Ti 45 -- V 2                    0.21        2.88858
             Ti 30 -- Ti 43                  0.16        2.88869
             Ti 17 -- Ti 34                  0.27        2.88878
              Al 4 -- Ti 36                  0.25        2.88891
             Ti 42 -- Ti 43                  0.16        2.88901
             Ti 2  -- Ti 17                  0.17        2.88963
             Ti 19 -- Ti 26                  0.17        2.89100
              Al 1 -- Ti 27                  0.22        2.89125
             Ti 3  -- Ti 13                  0.27        2.89126
              Al 3 -- Ti 1                   0.21        2.89142
              Al 5 -- Ti 26                  0.27        2.89182
              Al 5 -- Ti 36                  0.27        2.89236
             Ti 4  -- Ti 13                  0.16        2.89250
              Al 5 -- Ti 8                   0.20        2.89255
              Al 6 -- Ti 26                  0.23        2.89276
             Ti 2  -- Ti 13                  0.16        2.89285
             Ti 12 -- V 1                    0.18        2.89310
             Ti 10 -- Ti 40                  0.19        2.89314
             Ti 18 -- Ti 34                  0.18        2.89374
             Ti 18 -- Ti 35                  0.18        2.89387
             Ti 2  -- Ti 19                  0.17        2.89447
             Ti 6  -- V 2                    0.25        2.89453
             Ti 11 -- Ti 37                  0.24        2.89462
             Ti 2  -- Ti 11                  0.18        2.89469
             Ti 18 -- Ti 29                  0.15        2.89475
             Ti 32 -- Ti 43                  0.17        2.89528
              Al 4 -- Al 6                   0.22        2.89558
             Ti 7  -- Ti 25                  0.17        2.89561
              Al 1 -- Ti 6                   0.24        2.89675
              Al 2 -- Ti 27                  0.26        2.89704
              Al 2 -- Ti 15                  0.23        2.89785
             Ti 36 -- Ti 43                  0.16        2.89814
             Ti 5  -- Ti 10                  0.22        2.89914
             Ti 33 -- Ti 45                  0.17        2.89932
             Ti 39 -- Ti 44                  0.16        2.89935
             Ti 14 -- Ti 32                  0.22        2.89943
             Ti 11 -- Ti 41                  0.28        2.89996
             Ti 19 -- Ti 20                  0.16        2.90051
             Ti 4  -- Ti 15                  0.14        2.90103
             Ti 41 -- Ti 46                  0.17        2.90114
             Ti 6  -- Ti 15                  0.17        2.90125
             Ti 8  -- Ti 39                  0.26        2.90178
              Al 6 -- Ti 28                  0.22        2.90220
              Al 3 -- Ti 42                  0.25        2.90332
             Ti 9  -- Ti 26                  0.29        2.90378
              Al 3 -- Ti 18                  0.26        2.90382
             Ti 43 -- Ti 44                  0.16        2.90498
             Ti 32 -- Ti 45                  0.18        2.90512
             Ti 26 -- Ti 27                  0.19        2.90517
             Ti 29 -- V 1                    0.21        2.90537
             Ti 12 -- Ti 13                  0.14        2.90565
              Al 3 -- Ti 2                   0.27        2.90643
             Ti 3  -- Ti 9                   0.15        2.90890
             Ti 12 -- Ti 31                  0.15        2.90958
             Ti 37 -- Ti 40                  0.15        2.91028
             Ti 4  -- Ti 19                  0.15        2.91056
             Ti 35 -- Ti 39                  0.23        2.91088
             Ti 8  -- Ti 13                  0.28        2.91117
             Ti 30 -- Ti 42                  0.27        2.91137
             Ti 34 -- Ti 38                  0.16        2.91225
             Ti 15 -- Ti 21                  0.29        2.91277
             Ti 10 -- Ti 27                  0.19        2.91324
             Ti 11 -- Ti 42                  0.14        2.91418
             Ti 5  -- Ti 9                   0.12        2.91426
             Ti 4  -- Ti 14                  0.22        2.91467
             Ti 9  -- Ti 25                  0.15        2.91534
             Ti 27 -- Ti 33                  0.18        2.91580
             Ti 24 -- Ti 39                  0.14        2.91596
             Ti 35 -- Ti 43                  0.25        2.91659
             Ti 26 -- Ti 32                  0.28        2.91742
             Ti 13 -- Ti 19                  0.23        2.91754
             Ti 44 -- Ti 45                  0.21        2.91762
             Ti 12 -- Ti 38                  0.21        2.91783
             Ti 8  -- Ti 14                  0.16        2.91800
             Ti 1  -- Ti 41                  0.19        2.91854
              Al 3 -- Ti 38                  0.26        2.91964
             Ti 30 -- Ti 41                  0.17        2.92022
             Ti 21 -- Ti 26                  0.16        2.92063
             Ti 1  -- Ti 23                  0.20        2.92080
             Ti 36 -- Ti 45                  0.23        2.92108
             Ti 3  -- Ti 35                  0.24        2.92153
             Ti 38 -- Ti 39                  0.14        2.92216
              Al 3 -- Ti 35                  0.19        2.92281
             Ti 24 -- Ti 37                  0.16        2.92331
             Ti 13 -- Ti 44                  0.15        2.92333
             Ti 10 -- Ti 16                  0.17        2.92399
             Ti 2  -- Ti 42                  0.20        2.92418
              Al 1 -- Ti 28                  0.22        2.92425
             Ti 25 -- Ti 31                  0.25        2.92496
             Ti 33 -- Ti 46                  0.28        2.92550
              Al 2 -- Ti 21                  0.24        2.92558
              Al 6 -- Ti 27                  0.27        2.92628
             Ti 7  -- Ti 8                   0.15        2.92632
             Ti 4  -- Ti 5                   0.14        2.92661
             Ti 20 -- Ti 32                  0.27        2.92664
             Ti 14 -- Ti 20                  0.25        2.92678
              Al 3 -- Ti 30                  0.24        2.92740
             Ti 19 -- Ti 25                  0.25        2.92747
             Ti 10 -- Ti 15                  0.26        2.92897
             Ti 25 -- Ti 39                  0.24        2.92901
              Al 4 -- Ti 21                  0.27        2.92917
             Ti 17 -- Ti 22                  0.15        2.92963
             Ti 37 -- V 1                    0.28        2.93107
             Ti 19 -- Ti 31                  0.26        2.93379
             Ti 12 -- Ti 42                  0.24        2.93430
             Ti 23 -- Ti 30                  0.16        2.93441
             Ti 16 -- Ti 22                  0.16        2.93483
             Ti 3  -- Ti 43                  0.22        2.93535
             Ti 6  -- Ti 28                  0.21        2.93552
             Ti 8  -- Ti 31                  0.22        2.93707
             Ti 6  -- Ti 21                  0.16        2.93862
             Ti 12 -- Ti 30                  0.25        2.93887
             Ti 20 -- Ti 26                  0.24        2.94048
             Ti 23 -- Ti 29                  0.24        2.94138
              Al 2 -- Ti 10                  0.24        2.94171
             Ti 9  -- Ti 32                  0.23        2.94199
             Ti 38 -- V 1                    0.16        2.94400
             Ti 2  -- Ti 12                  0.22        2.94470
             Ti 46 -- V 2                    0.23        2.94470
              Al 6 -- Ti 10                  0.27        2.94476
             Ti 8  -- Ti 35                  0.23        2.94481
             Ti 30 -- Ti 31                  0.12        2.94568
             Ti 31 -- Ti 43                  0.26        2.94770
             Ti 13 -- Ti 43                  0.27        2.94809
             Ti 18 -- Ti 24                  0.25        2.94827
             Ti 28 -- Ti 33                  0.26        2.94933
             Ti 5  -- Ti 45                  0.20        2.95041
             Ti 20 -- Ti 36                  0.25        2.95250
             Ti 8  -- Ti 25                  0.25        2.95410
             Ti 39 -- Ti 43                  0.25        2.95589
              Al 1 -- V 2                    0.21        2.95596
             Ti 34 -- Ti 37                  0.26        2.95609
             Ti 37 -- Ti 42                  0.13        2.95620
             Ti 24 -- Ti 38                  0.25        2.95763
              Al 6 -- Ti 21                  0.26        2.95829
             Ti 5  -- Ti 15                  0.23        2.96004
             Ti 21 -- Ti 27                  0.26        2.96049
             Ti 38 -- Ti 42                  0.29        2.96090
             Ti 24 -- Ti 30                  0.29        2.96210
             Ti 29 -- Ti 34                  0.20        2.96242
             Ti 37 -- Ti 41                  0.23        2.96349
              Al 3 -- Ti 7                   0.22        2.96379
             Ti 4  -- Ti 26                  0.23        2.96449
             Ti 4  -- Ti 20                  0.21        2.96538
              Al 5 -- Ti 20                  0.23        2.96760
             Ti 4  -- Ti 44                  0.23        2.96796
             Ti 17 -- Ti 23                  0.25        2.97193
             Ti 2  -- Ti 18                  0.26        2.97477
              Al 1 -- Ti 33                  0.22        2.97489
             Ti 27 -- Ti 45                  0.17        2.97575
              Al 4 -- Ti 10                  0.24        2.97625
             Ti 19 -- Ti 35                  0.28        2.97638
             Ti 2  -- Ti 7                   0.24        2.97689
             Ti 22 -- Ti 40                  0.20        2.97798
             Ti 5  -- Ti 21                  0.26        2.98009
             Ti 28 -- Ti 46                  0.25        2.98160
             Ti 24 -- Ti 42                  0.26        2.98234
             Ti 3  -- Ti 8                   0.26        2.98242
             Ti 33 -- V 2                    0.29        2.98347
             Ti 26 -- Ti 44                  0.24        2.98425
             Ti 17 -- Ti 37                  0.25        2.98610
             Ti 12 -- Ti 18                  0.17        2.98743
             Ti 25 -- Ti 43                  0.22        2.98830
              Al 5 -- Ti 9                   0.25        2.98873
             Ti 5  -- Ti 27                  0.21        2.99055
             Ti 3  -- Ti 25                  0.22        2.99155
             Ti 13 -- Ti 39                  0.25        2.99424
              Al 2 -- Al 4                   0.15        2.99644
             Ti 7  -- Ti 24                  0.23        2.99715
             Ti 6  -- Ti 46                  0.21        2.99956
======================================================================

 
 A BibTeX formatted list of references used in this run has been written to 
 sqs_hcp_sc3x3x3_Ti46Al6V2_frame0_09.bib
 
Initialisation time =     19.50 s
Calculation time    =   2380.17 s
Finalisation time   =      0.36 s
Total time          =   2400.03 s
Peak Memory Use     = 1953488 kB
 
Overall parallel efficiency rating: Mediocre (56%)
 
Data was distributed by:-
G-vector (24-way); efficiency rating: Mediocre (56%)
k-point (14-way); efficiency rating: Excellent (97%)
