 +-------------------------------------------------+
 |                                                 |
 |      CCC   AA    SSS  TTTTT  EEEEE  PPPP        |
 |     C     A  A  S       T    E      P   P       |
 |     C     AAAA   SS     T    EEE    PPPP        |
 |     C     A  A     S    T    E      P           |
 |      CCC  A  A  SSS     T    EEEEE  P           |
 |                                                 |
 +-------------------------------------------------+
 |                                                 |
 | Welcome to Academic Release CASTEP version 24.1 |
 | Ab Initio Total Energy Program                  |
 |                                                 |
 | Authors:                                        |
 | M. Segall, M. Probert, C. Pickard, P. Hasnip,   |
 | S. Clark, K. Refson, J. R. Yates,               |
 | A. Bartok-Partay, M. Payne                      |
 |                                                 |
 | Contributors:                                   |
 | P. Lindan, P. Haynes, J. White, V. Milman,      |
 | N. Govind, M. Gibson, P. Tulip, V. Cocula,      |
 | B. Montanari, D. Quigley, M. Glover,            |
 | L. Bernasconi, A. Perlov, M. Plummer,           |
 | E. McNellis, J. Meyer, J. Gale, D. Jochym       |
 | J. Aarons, B. Walker, R. Gillen, D. Jones       |
 | T. Green, I. J. Bush, C. J. Armstrong,          |
 | E. J. Higgins, E. L. Brown, M. S. McFly,        |
 | J. Wilkins, B-C. Shih, P. J. P. Byrne,          |
 | R. J. Maurer, J. C. Womack, J. Dziedzic,        |
 | L. LeBlanc, T. K. Stenczel, J. Kermode,         |
 | S. Sturniolo, B. Shi, B. Durham, M. Evans,      |
 | M. J. Smith, A. Tamerus, Z. Hawkhead,           |
 | V. Ravindran, T. Hollins, S. A. Joyce,          |
 | R. T. Strong, A. M. Reilly                      |
 |                                                 |
 | Copyright (c) 2000 - 2023                       |
 |                                                 |
 |     Distributed under license from Cambridge    |
 |     Enterprise for academic use only.           |
 |                                                 |
 | Please cite                                     |
 |                                                 |
 |     "First principles methods using CASTEP"     |
 |                                                 |
 |         Zeitschrift fuer Kristallographie       |
 |           220(5-6) pp. 567-570 (2005)           |
 |                                                 |
 | S. J. Clark, M. D. Segall, C. J. Pickard,       |
 | P. J. Hasnip, M. J. Probert, K. Refson,         |
 | M. C. Payne                                     |
 |                                                 |
 |       in all publications arising from          |
 |              your use of CASTEP                 |
 |                                                 |
 +-------------------------------------------------+
 |                                                 |
 |              http://www.castep.org              |
 |                                                 |
 +-------------------------------------------------+



 Compiled for linux_x86_64_gfortran10 on Tue, 02 May 2023 15:31:46 +0100
 from code version db08e394c+  default  Mon May 1 16:40:39 2023 +0100
 Compiler: GNU Fortran 10.2.0; Optimisation: fast
 Comms   : Open MPI v4.0.5
 MATHLIBS: openblas (LAPACK version 3.9.0)
 FFT Lib : fftw3 version fftw-3.3.8-sse2-avx-avx2-avx2_128
 Fundamental constants values: CODATA 2018

 Run started: Wed, 07 Feb 2024 19:02:02 +0000
 Info: number of up-spin electrons is not equal to the
       number of down-spins but spin_polarized=false
     - consider setting spin_polarized=true.

 Atomic calculation performed for Al: 1s2 2s2 2p6 3s2 3p1

 Converged in 54 iterations to an ae energy of -6603.783 eV

   ============================================================                
   | Pseudopotential Report - Date of generation  7-02-2024   |                
   ------------------------------------------------------------                
   | Element: Al Ionic charge:  3.00 Level of theory: PBE     |                
   | Atomic Solver: Koelling-Harmon                           |                
   |                                                          |                
   |               Reference Electronic Structure             |                
   |         Orbital         Occupation         Energy        |                
   |            3s              2.000           -0.285        |                
   |            3p              1.000           -0.100        |                
   |                                                          |                
   |                 Pseudopotential Definition               |                
   |        Beta     l      e      Rc     scheme   norm       |                
   |          1      0   -0.285   2.192     qc      0         |                
   |          2      0    0.250   2.192     qc      0         |                
   |          3      1   -0.100   2.192     qc      0         |                
   |          4      1    0.250   2.192     qc      0         |                
   |          5      2    0.000   2.000     qc      0         |                
   |          6      2    0.250   2.000     qc      0         |                
   |         loc     3    0.000   2.192     pn      0         |                
   |                                                          |                
   | Augmentation charge Rinner = 1.398                       |                
   | Partial core correction Rc = 1.398                       |                
   ------------------------------------------------------------                
   | "3|2.2|2.2|1.4|4|5|5|30:31:32U2U2"                       |                
   ------------------------------------------------------------                
   |      Author: Chris J. Pickard, Cambridge University      |                
   ============================================================                

 Atomic calculation performed for Ti: 1s2 2s2 2p6 3s2 3p6 3d2 4s2

 Converged in 79 iterations to an ae energy of -23226.658 eV

   ============================================================                
   | Pseudopotential Report - Date of generation  7-02-2024   |                
   ------------------------------------------------------------                
   | Element: Ti Ionic charge: 12.00 Level of theory: PBE     |                
   | Atomic Solver: Koelling-Harmon                           |                
   |                                                          |                
   |               Reference Electronic Structure             |                
   |         Orbital         Occupation         Energy        |                
   |            3s              2.000           -2.302        |                
   |            3p              6.000           -1.428        |                
   |            4s              2.000           -0.164        |                
   |            3d              2.000           -0.157        |                
   |                                                          |                
   |                 Pseudopotential Definition               |                
   |        Beta     l      e      Rc     scheme   norm       |                
   |          1      0   -2.302   1.793     qc      0         |                
   |          2      0   -0.164   1.793     qc      0         |                
   |          3      0    0.250   1.793     qc      0         |                
   |          4      1   -1.428   1.793     qc      0         |                
   |          5      1    0.250   1.793     qc      0         |                
   |          6      2   -0.157   1.793     qc      0         |                
   |          7      2    0.250   1.793     qc      0         |                
   |         loc     3    0.000   1.793     pn      0         |                
   |                                                          |                
   | Augmentation charge Rinner = 1.263                       |                
   | Partial core correction Rc = 1.263                       |                
   ------------------------------------------------------------                
   | "3|1.8|9|10|11|30U:40:31:32(qc=5.5)"                     |                
   ------------------------------------------------------------                
   |      Author: Chris J. Pickard, Cambridge University      |                
   ============================================================                

 Atomic calculation performed for V: 1s2 2s2 2p6 3s2 3p6 3d3 4s2

 Converged in 81 iterations to an ae energy of -25823.733 eV

   ============================================================                
   | Pseudopotential Report - Date of generation  7-02-2024   |                
   ------------------------------------------------------------                
   | Element: V Ionic charge: 13.00 Level of theory: PBE      |                
   | Atomic Solver: Koelling-Harmon                           |                
   |                                                          |                
   |               Reference Electronic Structure             |                
   |         Orbital         Occupation         Energy        |                
   |            3s              2.000           -2.581        |                
   |            3p              6.000           -1.618        |                
   |            3d              3.000           -0.190        |                
   |            4s              2.000           -0.173        |                
   |                                                          |                
   |                 Pseudopotential Definition               |                
   |        Beta     l      e      Rc     scheme   norm       |                
   |          1      0   -2.581   1.803     qc      0         |                
   |          2      0   -0.173   1.803     qc      0         |                
   |          3      0    0.250   1.803     qc      0         |                
   |          4      1   -1.618   1.803     qc      0         |                
   |          5      1    0.250   1.803     qc      0         |                
   |          6      2   -0.190   1.803     qc      0         |                
   |          7      2    0.250   1.803     qc      0         |                
   |         loc     3    0.000   1.803     pn      0         |                
   |                                                          |                
   | Augmentation charge Rinner = 0.600                       |                
   | Partial core correction Rc = 0.600                       |                
   ------------------------------------------------------------                
   | "3|1.8|1.8|0.6|12|14|16|30U:40:31:32(qc=7)"              |                
   ------------------------------------------------------------                
   |      Author: Chris J. Pickard, Cambridge University      |                
   ============================================================                

 Pseudo atomic calculation performed for Al 3s2 3p1

 Converged in 15 iterations to a total energy of -107.1308 eV

 Pseudo atomic calculation performed for Ti 3s2 3p6 3d2 4s2

 Converged in 34 iterations to a total energy of -1587.0236 eV

 Pseudo atomic calculation performed for V 3s2 3p6 3d3 4s2

 Converged in 35 iterations to a total energy of -2065.7874 eV
 Calculation parallelised over 240 processes.
 Data is distributed by G-vector(16-way) and k-point(15-way)

 ************************************ Title ************************************
 

 ***************************** General Parameters ******************************
  
 output verbosity                               : normal  (1)
 write checkpoint data to                       : sqs_hex_sc3x3x3_Ti70Al8V3_frame0_10.check
 type of calculation                            : single point energy
 stress calculation                             : on
 density difference calculation                 : off
 electron localisation func (ELF) calculation   : off
 Hirshfeld analysis                             : off
 polarisation (Berry phase) analysis            : off
 molecular orbital projected DOS                : off
 deltaSCF calculation                           : off
 unlimited duration calculation
 timing information                             : on
 memory usage estimate                          : on
 write extra output files                       : on
 write final potential to formatted file        : off
 write final density to formatted file          : off
 write BibTeX reference list                    : on
 write OTFG pseudopotential files               : on
 write electrostatic potential file             : on
 write bands file                               : on
 checkpoint writing                             : off
  
 output         length unit                     : A
 output           mass unit                     : amu
 output           time unit                     : ps
 output         charge unit                     : e
 output           spin unit                     : hbar/2
 output         energy unit                     : eV
 output          force unit                     : eV/A
 output       velocity unit                     : A/ps
 output       pressure unit                     : GPa
 output     inv_length unit                     : 1/A
 output      frequency unit                     : cm-1
 output force constant unit                     : eV/A**2
 output         volume unit                     : A**3
 output   IR intensity unit                     : (D/A)**2/amu
 output         dipole unit                     : D
 output         efield unit                     : eV/A/e
 output        entropy unit                     : J/mol/K
 output    efield chi2 unit                     : pm/V
  
 wavefunctions paging                           : none
 random number generator seed                   :  190202188
 data distribution                              : k-point only
 optimization strategy                          : maximize speed(+++)

 *********************** Exchange-Correlation Parameters ***********************
  
 using functional                               : Perdew Burke Ernzerhof
 relativistic treatment                         : Koelling-Harmon
 DFT+D: Semi-empirical dispersion correction    : off

 ************************* Pseudopotential Parameters **************************
  
 pseudopotential representation                 : reciprocal space
 <beta|phi> representation                      : reciprocal space
 spin-orbit coupling                            : off

 **************************** Basis Set Parameters *****************************
  
 plane wave basis set cut-off                   :   800.0000   eV
 size of standard grid                          :     2.0000
 size of   fine   gmax                          :    28.9810   1/A
 largest prime factor in FFT                    :          5
 finite basis set correction                    : automatic
 number of sample energies                      :          3
           sample  spacing                      :     5.0000   eV

 **************************** Electronic Parameters ****************************
  
 number of  electrons                           :  903.0    
 net charge of system                           :  0.000    
 treating system as non-spin-polarized
 number of bands                                :        487

 ********************* Electronic Minimization Parameters **********************
  
 Method: Treating system as metallic with density mixing treatment of electrons,
         and number of  SD  steps               :          1
         and number of  CG  steps               :          4
  
 total energy / atom convergence tol.           : 0.1000E-05   eV
 eigen-energy convergence tolerance             : 0.1663E-06   eV
 max force / atom convergence tol.              : ignored
 convergence tolerance window                   :          3   cycles
 max. number of SCF cycles                      :         30
 number of fixed-spin iterations                :         10
 smearing scheme                                : Gaussian
 smearing width                                 : 0.5000E-01   eV
 Fermi energy convergence tolerance             : 0.2721E-13   eV
 periodic dipole correction                     : NONE

 ************************** Density Mixing Parameters **************************
  
 density-mixing scheme                          : Pulay
 max. length of mixing history                  :         20
 charge density mixing amplitude                : 0.8000    
 cut-off energy for mixing                      :  800.0       eV
 charge density mixing g-vector                 :  1.500       1/A

 *********************** Population Analysis Parameters ************************
  
 Population analysis with cutoff                :  3.000       A
 Population analysis output                     : summary and pdos components

 ******************************* Developer Code ********************************
  
 PARALLEL: kpoint=15 : ENDPARALLEL
 no_improve_wvfn

 *******************************************************************************
  

                           -------------------------------
                                      Unit Cell
                           -------------------------------
        Real Lattice(A)                      Reciprocal Lattice(1/A)
     6.6984750   -11.8388760     0.0000590        0.469001176  -0.265362409   0.000002208
     6.6984750    11.8388760    -0.0000200        0.469001176   0.265362409   0.000000452
    -0.0000240     0.0000280     8.4646560       -0.000002161   0.000002477   0.742284779

                       Lattice parameters(A)       Cell Angles
                    a =     13.602520          alpha =   89.999999
                    b =     13.602520          beta  =   89.999996
                    c =      8.464656          gamma =  120.997351

                       Current cell volume =          1342.535324       A**3
                                   density =             2.770405   AMU/A**3
                                           =             4.600366     g/cm^3

                           -------------------------------
                                     Cell Contents
                           -------------------------------
                         Total number of ions in cell =   81
                      Total number of species in cell =    3
                        Max number of any one species =   70

            xxxxxxxxxxxxxxxxxxxxxxxxxxxxxxxxxxxxxxxxxxxxxxxxxxxxxxxxxxxx
            x  Element    Atom        Fractional coordinates of atoms  x
            x            Number           u          v          w      x
            x----------------------------------------------------------x
            x  Al           1        -0.000247  -0.001326   0.330733   x 
            x  Al           2         0.561171   0.117172   0.794242   x 
            x  Al           3         0.552346   0.444073   0.652557   x 
            x  Al           4         0.560953   0.442024   0.973541   x 
            x  Al           5         0.336101   0.664673  -0.004848   x 
            x  Al           6         0.557634   0.777502   0.155799   x 
            x  Al           7         0.450688   0.900541   0.839547   x 
            x  Al           8         0.779252   0.889231   0.832163   x 
            x  Ti           1        -0.001779  -0.002587  -0.003597   x 
            x  Ti           2         0.108549   0.219909   0.163498   x 
            x  Ti           3         0.222498   0.110493   0.162162   x 
            x  Ti           4         0.106828   0.220019   0.497345   x 
            x  Ti           5         0.221687   0.110436   0.495743   x 
            x  Ti           6        -0.001662  -0.002396   0.665211   x 
            x  Ti           7         0.108640   0.218419   0.830768   x 
            x  Ti           8         0.224869   0.111682   0.829381   x 
            x  Ti           9         0.003632   0.336991  -0.002433   x 
            x  Ti          10         0.115427   0.556488   0.162964   x 
            x  Ti          11         0.225239   0.444777   0.164822   x 
            x  Ti          12         0.002551   0.334690   0.332524   x 
            x  Ti          13         0.112660   0.557161   0.495839   x 
            x  Ti          14         0.223460   0.446833   0.499970   x 
            x  Ti          15        -0.000455   0.335350   0.666586   x 
            x  Ti          16         0.109243   0.556232   0.829239   x 
            x  Ti          17         0.221769   0.444388   0.831850   x 
            x  Ti          18         0.000365   0.665542  -0.004249   x 
            x  Ti          19         0.112536   0.889715   0.162442   x 
            x  Ti          20         0.217888   0.775277   0.164047   x 
            x  Ti          21        -0.005464   0.664090   0.328735   x 
            x  Ti          22         0.113142   0.888943   0.494455   x 
            x  Ti          23         0.221125   0.776339   0.492681   x 
            x  Ti          24        -0.004545   0.664505   0.663284   x 
            x  Ti          25         0.109696   0.888687   0.827867   x 
            x  Ti          26         0.224622   0.779543   0.828082   x 
            x  Ti          27         0.333992   0.000309  -0.006320   x 
            x  Ti          28         0.451283   0.234852   0.159903   x 
            x  Ti          29         0.556528   0.110575   0.142310   x 
            x  Ti          30         0.336418   0.005066   0.326601   x 
            x  Ti          31         0.452068   0.236456   0.487518   x 
            x  Ti          32         0.334858   0.002202   0.659143   x 
            x  Ti          33         0.451035   0.232520   0.825347   x 
            x  Ti          34         0.325672   0.330257  -0.001417   x 
            x  Ti          35         0.451406   0.548786   0.155394   x 
            x  Ti          36         0.558241   0.447419   0.310247   x 
            x  Ti          37         0.320581   0.326511   0.328374   x 
            x  Ti          38         0.449629   0.546337   0.489433   x 
            x  Ti          39         0.321492   0.327665   0.659526   x 
            x  Ti          40         0.449650   0.548696   0.821232   x 
            x  Ti          41         0.439522   0.885989   0.165315   x 
            x  Ti          42         0.335897   0.666633   0.329957   x 
            x  Ti          43         0.446670   0.896220   0.507807   x 
            x  Ti          44         0.552530   0.775180   0.482160   x 
            x  Ti          45         0.337370   0.669584   0.661591   x 
            x  Ti          46         0.554897   0.777830   0.828963   x 
            x  Ti          47         0.667139  -0.002828  -0.004772   x 
            x  Ti          48         0.780331   0.221598   0.168313   x 
            x  Ti          49         0.888455   0.112281   0.165778   x 
            x  Ti          50         0.662668  -0.004470   0.329432   x 
            x  Ti          51         0.770173   0.217601   0.500950   x 
            x  Ti          52         0.886936   0.114703   0.494753   x 
            x  Ti          53         0.667112  -0.005315   0.663059   x 
            x  Ti          54         0.782897   0.225112   0.839423   x 
            x  Ti          55         0.889225   0.112704   0.830038   x 
            x  Ti          56         0.769794   0.544721   0.135186   x 
            x  Ti          57         0.892755   0.443330   0.164231   x 
            x  Ti          58         0.671932   0.327119   0.321028   x 
            x  Ti          59         0.762578   0.547571   0.485135   x 
            x  Ti          60         0.888702   0.444169   0.500467   x 
            x  Ti          61         0.669707   0.333575   0.663686   x 
            x  Ti          62         0.877221   0.448702   0.837333   x 
            x  Ti          63         0.671184   0.674149  -0.005626   x 
            x  Ti          64         0.782764   0.892879   0.161762   x 
            x  Ti          65         0.888461   0.774609   0.169204   x 
            x  Ti          66         0.675867   0.682590   0.325152   x 
            x  Ti          67         0.781058   0.892616   0.504270   x 
            x  Ti          68         0.889891   0.775228   0.499151   x 
            x  Ti          69         0.670677   0.675987   0.657990   x 
            x  Ti          70         0.885427   0.769594   0.834433   x 
            x  V            1         0.552039   0.117615   0.474329   x 
            x  V            2         0.663753   0.316479  -0.004301   x 
            x  V            3         0.761099   0.553177   0.803565   x 
            xxxxxxxxxxxxxxxxxxxxxxxxxxxxxxxxxxxxxxxxxxxxxxxxxxxxxxxxxxxx


                         No user defined ionic velocities

                           -------------------------------
                                   Details of Species
                           -------------------------------

                               Mass of species in AMU
                                    Al   26.9815400
                                    Ti   47.8670000
                                    V   50.9415000

                          Electric Quadrupole Moment (Barn)
                                    Al    0.1466000 Isotope 27
                                    Ti    0.3020000 Isotope 47
                                    V   -0.0520000 Isotope 51

                          Files used for pseudopotentials:
                                    Al 3|2.2|2.2|1.4|4|5|5|30:31:32U2U2
                                    Ti 3|1.8|9|10|11|30U:40:31:32(qc=5.5)
                                    V 3|1.8|1.8|0.6|12|14|16|30U:40:31:32(qc=7)

                           -------------------------------
                              k-Points For BZ Sampling
                           -------------------------------
                       MP grid size for SCF calculation is  5  5  6
                            with an offset of   0.000  0.000  0.000
                       Number of kpoints used =            75

                           -------------------------------
                               Symmetry and Constraints
                           -------------------------------

                      Maximum deviation from symmetry =  0.00000         ANG

                      Number of symmetry operations   =           1
                      Number of ionic constraints     =           3
                      Point group of crystal =     1: C1, 1, 1
                      Space group of crystal =     1: P1, P 1

             Set iprint > 1 for details on symmetry rotations/translations

                         Centre of mass is constrained
             Set iprint > 1 for details of linear ionic constraints

                         Number of cell constraints= 0
                         Cell constraints are:  1 2 3 4 5 6

                         External pressure/stress (GPa)
                          0.00000   0.00000   0.00000
                                    0.00000   0.00000
                                              0.00000
 
+---------------- MEMORY AND SCRATCH DISK ESTIMATES PER PROCESS --------------+
|                                                     Memory          Disk    |
| Baseline code, static data and system overhead      611.0 MB         0.0 MB |
| BLAS internal memory storage                          0.0 MB         0.0 MB |
| Model and support data                              921.0 MB         0.0 MB |
| Electronic energy minimisation requirements         432.7 MB         0.0 MB |
| Force calculation requirements                       15.9 MB         0.0 MB |
| Stress calculation requirements                      17.2 MB         0.0 MB |
|                                               ----------------------------- |
| Approx. total storage required per process         1964.7 MB         0.0 MB |
|                                                                             |
| Requirements will fluctuate during execution and may exceed these estimates |
+-----------------------------------------------------------------------------+
Calculating finite basis set correction with  3 cut-off energies.
Calculating total energy with cut-off of  790.000 eV.
------------------------------------------------------------------------ <-- SCF
SCF loop      Energy           Fermi           Energy gain       Timer   <-- SCF
                               energy          per atom          (sec)   <-- SCF
------------------------------------------------------------------------ <-- SCF
Initial  -1.06852756E+005  0.00000000E+000                        34.44  <-- SCF
      1  -1.15644064E+005  1.20979239E+001   1.08534665E+002     237.13  <-- SCF
      2  -1.18525075E+005  9.43191135E+000   3.55680416E+001     405.42  <-- SCF
      3  -1.18686592E+005  9.21706593E+000   1.99403156E+000     576.55  <-- SCF
      4  -1.18709334E+005  8.40341024E+000   2.80764241E-001     780.75  <-- SCF
      5  -1.18693736E+005  8.62175423E+000  -1.92569142E-001     987.54  <-- SCF
      6  -1.18687601E+005  8.77798431E+000  -7.57350059E-002    1188.73  <-- SCF
      7  -1.18682667E+005  8.79893378E+000  -6.09122271E-002    1395.71  <-- SCF
      8  -1.18683723E+005  8.74899852E+000   1.30299810E-002    1599.09  <-- SCF
      9  -1.18682566E+005  8.74558109E+000  -1.42796211E-002    1788.22  <-- SCF
     10  -1.18682337E+005  8.72899268E+000  -2.83127786E-003    1985.22  <-- SCF
     11  -1.18682407E+005  8.72413756E+000   8.66304325E-004    2185.40  <-- SCF
     12  -1.18682336E+005  8.72184394E+000  -8.75194321E-004    2369.54  <-- SCF
     13  -1.18682322E+005  8.72263326E+000  -1.65647988E-004    2563.42  <-- SCF
     14  -1.18682322E+005  8.72297347E+000  -1.78457900E-006    2750.61  <-- SCF
     15  -1.18682321E+005  8.72302516E+000  -1.92392880E-005    2911.45  <-- SCF
     16  -1.18682321E+005  8.72308346E+000   1.80467456E-006    3067.15  <-- SCF
     17  -1.18682321E+005  8.72315192E+000  -2.39190840E-006    3203.01  <-- SCF
     18  -1.18682321E+005  8.72314786E+000   7.08454978E-008    3317.57  <-- SCF
     19  -1.18682321E+005  8.72313799E+000   9.38736225E-009    3431.39  <-- SCF
------------------------------------------------------------------------ <-- SCF
 
Final energy, E             =  -118682.2129222     eV
Final free energy (E-TS)    =  -118682.3207296     eV
(energies not corrected for finite basis set)
 
NB est. 0K energy (E-0.5TS)      =  -118682.2668259     eV
 
Calculating total energy with cut-off of  795.000 eV.
------------------------------------------------------------------------ <-- SCF
SCF loop      Energy           Fermi           Energy gain       Timer   <-- SCF
                               energy          per atom          (sec)   <-- SCF
------------------------------------------------------------------------ <-- SCF
Initial  -1.18682213E+005  0.00000000E+000                      3464.17  <-- SCF
      1  -1.18682323E+005  8.72329877E+000   1.35746777E-003    3602.51  <-- SCF
      2  -1.18682323E+005  8.72329685E+000   2.67077422E-006    3742.48  <-- SCF
      3  -1.18682347E+005  8.72124546E+000   2.99661718E-004    3920.11  <-- SCF
      4  -1.18682323E+005  8.72397365E+000  -2.97533377E-004    4091.80  <-- SCF
      5  -1.18682322E+005  8.72319503E+000  -1.46331269E-005    4251.84  <-- SCF
      6  -1.18682322E+005  8.72311215E+000   1.86733957E-006    4382.34  <-- SCF
      7  -1.18682322E+005  8.72313959E+000  -1.91765992E-007    4488.55  <-- SCF
      8  -1.18682322E+005  8.72310699E+000  -7.37756112E-008    4591.99  <-- SCF
------------------------------------------------------------------------ <-- SCF
 
Final energy, E             =  -118682.2143763     eV
Final free energy (E-TS)    =  -118682.3221792     eV
(energies not corrected for finite basis set)
 
NB est. 0K energy (E-0.5TS)      =  -118682.2682778     eV
 
Calculating total energy with cut-off of  800.000 eV.
------------------------------------------------------------------------ <-- SCF
SCF loop      Energy           Fermi           Energy gain       Timer   <-- SCF
                               energy          per atom          (sec)   <-- SCF
------------------------------------------------------------------------ <-- SCF
Initial  -1.18682214E+005  0.00000000E+000                      4622.11  <-- SCF
      1  -1.18682328E+005  8.72305800E+000   1.39899432E-003    4775.81  <-- SCF
      2  -1.18682328E+005  8.72305613E+000   2.83477166E-006    4920.30  <-- SCF
      3  -1.18682427E+005  8.72221774E+000   1.21921517E-003    5102.84  <-- SCF
      4  -1.18682325E+005  8.72434866E+000  -1.24999632E-003    5278.94  <-- SCF
      5  -1.18682323E+005  8.72316556E+000  -2.46381048E-005    5441.99  <-- SCF
      6  -1.18682324E+005  8.72314523E+000   5.49597520E-006    5599.14  <-- SCF
      7  -1.18682324E+005  8.72306972E+000  -2.16434613E-006    5726.31  <-- SCF
      8  -1.18682324E+005  8.72307091E+000  -3.96294934E-007    5833.88  <-- SCF
      9  -1.18682324E+005  8.72307807E+000  -4.85341661E-008    5939.16  <-- SCF
------------------------------------------------------------------------ <-- SCF
 
Final energy, E             =  -118682.2157562     eV
Final free energy (E-TS)    =  -118682.3235582     eV
(energies not corrected for finite basis set)
 
NB est. 0K energy (E-0.5TS)      =  -118682.2696572     eV
 
 For future reference: finite basis dEtot/dlog(Ecut) =      -0.224653eV
 Total energy corrected for finite basis set = -118682.323559 eV

 ************************** Forces **************************
 *                                                          *
 *               Cartesian components (eV/A)                *
 * -------------------------------------------------------- *
 *                         x            y            z      *
 *                                                          *
 * Al              1      0.03200      0.01928      0.01472 *
 * Al              2     -0.24153      0.01575      0.06252 *
 * Al              3      0.09844     -0.03625     -0.00124 *
 * Al              4      0.01749      0.06493     -0.01337 *
 * Al              5     -0.02142      0.02606     -0.04105 *
 * Al              6     -0.10326      0.16649     -0.03591 *
 * Al              7     -0.16926     -0.25098      0.16908 *
 * Al              8     -0.00115     -0.05134      0.04603 *
 * Ti              1      0.02747     -0.07842      0.06681 *
 * Ti              2     -0.16469      0.03360      0.02624 *
 * Ti              3      0.02890     -0.04873     -0.00389 *
 * Ti              4     -0.11640      0.04132     -0.04224 *
 * Ti              5     -0.03020      0.01280     -0.05793 *
 * Ti              6      0.04825     -0.03619     -0.07656 *
 * Ti              7     -0.02358      0.09290      0.00817 *
 * Ti              8      0.05572     -0.05093      0.00851 *
 * Ti              9      0.00872     -0.03743     -0.03761 *
 * Ti             10      0.03567      0.01231      0.00475 *
 * Ti             11      0.09041     -0.03280     -0.03637 *
 * Ti             12     -0.04504      0.03298     -0.00330 *
 * Ti             13     -0.01535      0.03639      0.01580 *
 * Ti             14      0.06883     -0.01248     -0.06328 *
 * Ti             15     -0.00274     -0.01657      0.01828 *
 * Ti             16      0.08747     -0.00983      0.01690 *
 * Ti             17      0.07720      0.06922     -0.06548 *
 * Ti             18     -0.10764      0.03146     -0.12611 *
 * Ti             19     -0.09958      0.03552      0.04643 *
 * Ti             20      0.14634     -0.01002      0.01726 *
 * Ti             21      0.02506     -0.01705     -0.01905 *
 * Ti             22     -0.02385      0.03699     -0.01379 *
 * Ti             23      0.03511      0.05092     -0.01844 *
 * Ti             24     -0.00250     -0.01200      0.08548 *
 * Ti             25      0.01943     -0.11769     -0.02073 *
 * Ti             26     -0.13532     -0.02614      0.00364 *
 * Ti             27     -0.02033      0.04099      0.00943 *
 * Ti             28      0.04875     -0.06712      0.00730 *
 * Ti             29      0.02158      0.01924      0.06361 *
 * Ti             30     -0.00831      0.05357     -0.05487 *
 * Ti             31     -0.10134     -0.05070     -0.11918 *
 * Ti             32      0.05280     -0.05797      0.04939 *
 * Ti             33     -0.08169     -0.22926     -0.02624 *
 * Ti             34     -0.01888      0.05135     -0.10248 *
 * Ti             35     -0.00192      0.06265      0.13520 *
 * Ti             36     -0.10301      0.04994      0.20013 *
 * Ti             37      0.08640     -0.02685     -0.07047 *
 * Ti             38      0.08456      0.08410      0.00382 *
 * Ti             39      0.02226     -0.02372      0.11762 *
 * Ti             40     -0.05494      0.05848     -0.00892 *
 * Ti             41      0.03214     -0.05957      0.01327 *
 * Ti             42      0.03125      0.03878     -0.17054 *
 * Ti             43     -0.01594     -0.05886      0.05706 *
 * Ti             44      0.07820      0.02581     -0.06614 *
 * Ti             45      0.07096      0.06319      0.09692 *
 * Ti             46     -0.07236      0.02368     -0.03117 *
 * Ti             47      0.03364      0.06068      0.04061 *
 * Ti             48      0.05878     -0.04539     -0.03813 *
 * Ti             49     -0.03969     -0.02955     -0.01320 *
 * Ti             50      0.04509      0.03544     -0.08390 *
 * Ti             51      0.02823     -0.17827     -0.03350 *
 * Ti             52     -0.03731     -0.05631     -0.04061 *
 * Ti             53     -0.06631     -0.01893      0.05160 *
 * Ti             54      0.04755     -0.10874      0.09871 *
 * Ti             55      0.08367      0.17993      0.02377 *
 * Ti             56      0.12159     -0.04020      0.28222 *
 * Ti             57     -0.08765      0.04359     -0.11287 *
 * Ti             58      0.05313      0.19540      0.08073 *
 * Ti             59      0.10201     -0.12690     -0.10361 *
 * Ti             60     -0.04375     -0.00808     -0.05503 *
 * Ti             61     -0.13618      0.10657     -0.04981 *
 * Ti             62     -0.04893      0.00230      0.03058 *
 * Ti             63     -0.05293      0.07814     -0.01137 *
 * Ti             64      0.05552     -0.02667      0.01890 *
 * Ti             65      0.01223      0.01278     -0.05940 *
 * Ti             66     -0.17993      0.00476     -0.06934 *
 * Ti             67      0.07080      0.01665     -0.00880 *
 * Ti             68     -0.01852      0.00394     -0.15226 *
 * Ti             69     -0.00590     -0.00856      0.04781 *
 * Ti             70      0.00567     -0.01663     -0.11340 *
 * V               1     -0.07378      0.05736      0.01967 *
 * V               2      0.13713      0.20730      0.02446 *
 * V               3      0.28666     -0.27243      0.18814 *
 *                                                          *
 ************************************************************

 ***************** Stress Tensor *****************
 *                                               *
 *          Cartesian components (GPa)           *
 * --------------------------------------------- *
 *             x             y             z     *
 *                                               *
 *  x     -4.145701      0.061819     -0.236796  *
 *  y      0.061819     -1.749216      0.287805  *
 *  z     -0.236796      0.287805     -1.202871  *
 *                                               *
 *  Pressure:    2.3659                          *
 *                                               *
 *************************************************

 Pseudo atomic calculation performed for Al 3s2 3p1

 Converged in 15 iterations to a total energy of -107.1308 eV

 Pseudo atomic calculation performed for Ti 3s2 3p6 3d2 4s2

 Converged in 34 iterations to a total energy of -1587.0236 eV

 Pseudo atomic calculation performed for V 3s2 3p6 3d3 4s2

 Converged in 35 iterations to a total energy of -2065.7874 eV
Charge spilling parameter for spin component 1 = 0.08%

            Orbital Populations       
     Ion    Atom   Orbital             Charge
  -------------------------------------------
     Al     1      S                    0.905
     Al     1      Px                   0.685
     Al     1      Py                   0.666
     Al     1      Pz                   0.675
     Al     2      S                    0.949
     Al     2      Px                   0.704
     Al     2      Py                   0.726
     Al     2      Pz                   0.676
     Al     3      S                    0.953
     Al     3      Px                   0.745
     Al     3      Py                   0.749
     Al     3      Pz                   0.635
     Al     4      S                    0.956
     Al     4      Px                   0.745
     Al     4      Py                   0.724
     Al     4      Pz                   0.640
     Al     5      S                    0.929
     Al     5      Px                   0.640
     Al     5      Py                   0.661
     Al     5      Pz                   0.694
     Al     6      S                    0.962
     Al     6      Px                   0.701
     Al     6      Py                   0.720
     Al     6      Pz                   0.675
     Al     7      S                    0.965
     Al     7      Px                   0.677
     Al     7      Py                   0.720
     Al     7      Pz                   0.694
     Al     8      S                    0.942
     Al     8      Px                   0.729
     Al     8      Py                   0.712
     Al     8      Pz                   0.668
     Ti     1      S                    2.001
     Ti     1      Px                   2.004
     Ti     1      Py                   2.003
     Ti     1      Pz                   2.005
     Ti     1      S                    0.304
     Ti     1      Dzz                  0.484
     Ti     1      Dzy                  0.615
     Ti     1      Dzx                  0.640
     Ti     1      Dxx-yy               0.456
     Ti     1      Dxy                  0.449
     Ti     1      Px                   0.335
     Ti     1      Py                   0.354
     Ti     1      Pz                   0.306
     Ti     2      S                    2.006
     Ti     2      Px                   2.009
     Ti     2      Py                   2.008
     Ti     2      Pz                   2.007
     Ti     2      S                    0.257
     Ti     2      Dzz                  0.592
     Ti     2      Dzy                  0.508
     Ti     2      Dzx                  0.512
     Ti     2      Dxx-yy               0.604
     Ti     2      Dxy                  0.600
     Ti     2      Px                   0.286
     Ti     2      Py                   0.302
     Ti     2      Pz                   0.336
     Ti     3      S                    2.005
     Ti     3      Px                   2.008
     Ti     3      Py                   2.008
     Ti     3      Pz                   2.007
     Ti     3      S                    0.262
     Ti     3      Dzz                  0.597
     Ti     3      Dzy                  0.497
     Ti     3      Dzx                  0.501
     Ti     3      Dxx-yy               0.609
     Ti     3      Dxy                  0.605
     Ti     3      Px                   0.294
     Ti     3      Py                   0.315
     Ti     3      Pz                   0.328
     Ti     4      S                    2.006
     Ti     4      Px                   2.009
     Ti     4      Py                   2.008
     Ti     4      Pz                   2.007
     Ti     4      S                    0.249
     Ti     4      Dzz                  0.597
     Ti     4      Dzy                  0.504
     Ti     4      Dzx                  0.505
     Ti     4      Dxx-yy               0.603
     Ti     4      Dxy                  0.607
     Ti     4      Px                   0.286
     Ti     4      Py                   0.304
     Ti     4      Pz                   0.328
     Ti     5      S                    2.005
     Ti     5      Px                   2.008
     Ti     5      Py                   2.008
     Ti     5      Pz                   2.007
     Ti     5      S                    0.264
     Ti     5      Dzz                  0.600
     Ti     5      Dzy                  0.493
     Ti     5      Dzx                  0.499
     Ti     5      Dxx-yy               0.609
     Ti     5      Dxy                  0.606
     Ti     5      Px                   0.296
     Ti     5      Py                   0.315
     Ti     5      Pz                   0.327
     Ti     6      S                    2.001
     Ti     6      Px                   2.004
     Ti     6      Py                   2.003
     Ti     6      Pz                   2.005
     Ti     6      S                    0.302
     Ti     6      Dzz                  0.480
     Ti     6      Dzy                  0.618
     Ti     6      Dzx                  0.652
     Ti     6      Dxx-yy               0.453
     Ti     6      Dxy                  0.440
     Ti     6      Px                   0.330
     Ti     6      Py                   0.350
     Ti     6      Pz                   0.306
     Ti     7      S                    2.006
     Ti     7      Px                   2.009
     Ti     7      Py                   2.008
     Ti     7      Pz                   2.007
     Ti     7      S                    0.245
     Ti     7      Dzz                  0.580
     Ti     7      Dzy                  0.498
     Ti     7      Dzx                  0.513
     Ti     7      Dxx-yy               0.605
     Ti     7      Dxy                  0.612
     Ti     7      Px                   0.307
     Ti     7      Py                   0.318
     Ti     7      Pz                   0.344
     Ti     8      S                    2.005
     Ti     8      Px                   2.007
     Ti     8      Py                   2.007
     Ti     8      Pz                   2.007
     Ti     8      S                    0.252
     Ti     8      Dzz                  0.588
     Ti     8      Dzy                  0.500
     Ti     8      Dzx                  0.510
     Ti     8      Dxx-yy               0.598
     Ti     8      Dxy                  0.596
     Ti     8      Px                   0.315
     Ti     8      Py                   0.326
     Ti     8      Pz                   0.340
     Ti     9      S                    2.001
     Ti     9      Px                   2.004
     Ti     9      Py                   2.003
     Ti     9      Pz                   2.005
     Ti     9      S                    0.288
     Ti     9      Dzz                  0.498
     Ti     9      Dzy                  0.580
     Ti     9      Dzx                  0.611
     Ti     9      Dxx-yy               0.476
     Ti     9      Dxy                  0.460
     Ti     9      Px                   0.355
     Ti     9      Py                   0.349
     Ti     9      Pz                   0.337
     Ti    10      S                    2.005
     Ti    10      Px                   2.008
     Ti    10      Py                   2.008
     Ti    10      Pz                   2.007
     Ti    10      S                    0.247
     Ti    10      Dzz                  0.582
     Ti    10      Dzy                  0.514
     Ti    10      Dzx                  0.520
     Ti    10      Dxx-yy               0.613
     Ti    10      Dxy                  0.592
     Ti    10      Px                   0.276
     Ti    10      Py                   0.299
     Ti    10      Pz                   0.335
     Ti    11      S                    2.005
     Ti    11      Px                   2.008
     Ti    11      Py                   2.009
     Ti    11      Pz                   2.007
     Ti    11      S                    0.265
     Ti    11      Dzz                  0.599
     Ti    11      Dzy                  0.495
     Ti    11      Dzx                  0.493
     Ti    11      Dxx-yy               0.598
     Ti    11      Dxy                  0.618
     Ti    11      Px                   0.318
     Ti    11      Py                   0.305
     Ti    11      Pz                   0.324
     Ti    12      S                    2.001
     Ti    12      Px                   2.004
     Ti    12      Py                   2.003
     Ti    12      Pz                   2.005
     Ti    12      S                    0.285
     Ti    12      Dzz                  0.503
     Ti    12      Dzy                  0.603
     Ti    12      Dzx                  0.597
     Ti    12      Dxx-yy               0.451
     Ti    12      Dxy                  0.469
     Ti    12      Px                   0.345
     Ti    12      Py                   0.351
     Ti    12      Pz                   0.341
     Ti    13      S                    2.005
     Ti    13      Px                   2.008
     Ti    13      Py                   2.007
     Ti    13      Pz                   2.007
     Ti    13      S                    0.240
     Ti    13      Dzz                  0.573
     Ti    13      Dzy                  0.503
     Ti    13      Dzx                  0.517
     Ti    13      Dxx-yy               0.609
     Ti    13      Dxy                  0.608
     Ti    13      Px                   0.317
     Ti    13      Py                   0.313
     Ti    13      Pz                   0.344
     Ti    14      S                    2.005
     Ti    14      Px                   2.008
     Ti    14      Py                   2.008
     Ti    14      Pz                   2.007
     Ti    14      S                    0.255
     Ti    14      Dzz                  0.592
     Ti    14      Dzy                  0.505
     Ti    14      Dzx                  0.491
     Ti    14      Dxx-yy               0.595
     Ti    14      Dxy                  0.613
     Ti    14      Px                   0.325
     Ti    14      Py                   0.315
     Ti    14      Pz                   0.336
     Ti    15      S                    2.001
     Ti    15      Px                   2.004
     Ti    15      Py                   2.003
     Ti    15      Pz                   2.005
     Ti    15      S                    0.294
     Ti    15      Dzz                  0.497
     Ti    15      Dzy                  0.601
     Ti    15      Dzx                  0.610
     Ti    15      Dxx-yy               0.469
     Ti    15      Dxy                  0.445
     Ti    15      Px                   0.350
     Ti    15      Py                   0.350
     Ti    15      Pz                   0.339
     Ti    16      S                    2.004
     Ti    16      Px                   2.007
     Ti    16      Py                   2.007
     Ti    16      Pz                   2.006
     Ti    16      S                    0.256
     Ti    16      Dzz                  0.608
     Ti    16      Dzy                  0.496
     Ti    16      Dzx                  0.494
     Ti    16      Dxx-yy               0.593
     Ti    16      Dxy                  0.602
     Ti    16      Px                   0.309
     Ti    16      Py                   0.313
     Ti    16      Pz                   0.323
     Ti    17      S                    2.005
     Ti    17      Px                   2.007
     Ti    17      Py                   2.008
     Ti    17      Pz                   2.007
     Ti    17      S                    0.266
     Ti    17      Dzz                  0.609
     Ti    17      Dzy                  0.506
     Ti    17      Dzx                  0.494
     Ti    17      Dxx-yy               0.593
     Ti    17      Dxy                  0.595
     Ti    17      Px                   0.306
     Ti    17      Py                   0.313
     Ti    17      Pz                   0.329
     Ti    18      S                    2.001
     Ti    18      Px                   2.003
     Ti    18      Py                   2.004
     Ti    18      Pz                   2.005
     Ti    18      S                    0.292
     Ti    18      Dzz                  0.492
     Ti    18      Dzy                  0.601
     Ti    18      Dzx                  0.597
     Ti    18      Dxx-yy               0.464
     Ti    18      Dxy                  0.476
     Ti    18      Px                   0.353
     Ti    18      Py                   0.348
     Ti    18      Pz                   0.344
     Ti    19      S                    2.005
     Ti    19      Px                   2.008
     Ti    19      Py                   2.007
     Ti    19      Pz                   2.007
     Ti    19      S                    0.251
     Ti    19      Dzz                  0.577
     Ti    19      Dzy                  0.502
     Ti    19      Dzx                  0.518
     Ti    19      Dxx-yy               0.608
     Ti    19      Dxy                  0.611
     Ti    19      Px                   0.299
     Ti    19      Py                   0.291
     Ti    19      Pz                   0.340
     Ti    20      S                    2.005
     Ti    20      Px                   2.008
     Ti    20      Py                   2.007
     Ti    20      Pz                   2.007
     Ti    20      S                    0.252
     Ti    20      Dzz                  0.584
     Ti    20      Dzy                  0.501
     Ti    20      Dzx                  0.517
     Ti    20      Dxx-yy               0.603
     Ti    20      Dxy                  0.609
     Ti    20      Px                   0.295
     Ti    20      Py                   0.290
     Ti    20      Pz                   0.338
     Ti    21      S                    2.000
     Ti    21      Px                   2.003
     Ti    21      Py                   2.003
     Ti    21      Pz                   2.004
     Ti    21      S                    0.295
     Ti    21      Dzz                  0.512
     Ti    21      Dzy                  0.597
     Ti    21      Dzx                  0.596
     Ti    21      Dxx-yy               0.450
     Ti    21      Dxy                  0.466
     Ti    21      Px                   0.352
     Ti    21      Py                   0.349
     Ti    21      Pz                   0.334
     Ti    22      S                    2.005
     Ti    22      Px                   2.008
     Ti    22      Py                   2.007
     Ti    22      Pz                   2.007
     Ti    22      S                    0.249
     Ti    22      Dzz                  0.587
     Ti    22      Dzy                  0.499
     Ti    22      Dzx                  0.520
     Ti    22      Dxx-yy               0.601
     Ti    22      Dxy                  0.608
     Ti    22      Px                   0.304
     Ti    22      Py                   0.290
     Ti    22      Pz                   0.337
     Ti    23      S                    2.004
     Ti    23      Px                   2.007
     Ti    23      Py                   2.007
     Ti    23      Pz                   2.007
     Ti    23      S                    0.245
     Ti    23      Dzz                  0.567
     Ti    23      Dzy                  0.508
     Ti    23      Dzx                  0.511
     Ti    23      Dxx-yy               0.608
     Ti    23      Dxy                  0.602
     Ti    23      Px                   0.298
     Ti    23      Py                   0.315
     Ti    23      Pz                   0.349
     Ti    24      S                    2.001
     Ti    24      Px                   2.003
     Ti    24      Py                   2.003
     Ti    24      Pz                   2.004
     Ti    24      S                    0.295
     Ti    24      Dzz                  0.489
     Ti    24      Dzy                  0.615
     Ti    24      Dzx                  0.607
     Ti    24      Dxx-yy               0.444
     Ti    24      Dxy                  0.469
     Ti    24      Px                   0.348
     Ti    24      Py                   0.353
     Ti    24      Pz                   0.344
     Ti    25      S                    2.005
     Ti    25      Px                   2.007
     Ti    25      Py                   2.007
     Ti    25      Pz                   2.006
     Ti    25      S                    0.247
     Ti    25      Dzz                  0.582
     Ti    25      Dzy                  0.495
     Ti    25      Dzx                  0.507
     Ti    25      Dxx-yy               0.611
     Ti    25      Dxy                  0.597
     Ti    25      Px                   0.322
     Ti    25      Py                   0.328
     Ti    25      Pz                   0.340
     Ti    26      S                    2.004
     Ti    26      Px                   2.008
     Ti    26      Py                   2.006
     Ti    26      Pz                   2.005
     Ti    26      S                    0.247
     Ti    26      Dzz                  0.611
     Ti    26      Dzy                  0.481
     Ti    26      Dzx                  0.512
     Ti    26      Dxx-yy               0.579
     Ti    26      Dxy                  0.612
     Ti    26      Px                   0.283
     Ti    26      Py                   0.286
     Ti    26      Pz                   0.343
     Ti    27      S                    2.000
     Ti    27      Px                   2.003
     Ti    27      Py                   2.004
     Ti    27      Pz                   2.004
     Ti    27      S                    0.300
     Ti    27      Dzz                  0.493
     Ti    27      Dzy                  0.605
     Ti    27      Dzx                  0.598
     Ti    27      Dxx-yy               0.448
     Ti    27      Dxy                  0.493
     Ti    27      Px                   0.334
     Ti    27      Py                   0.323
     Ti    27      Pz                   0.332
     Ti    28      S                    2.003
     Ti    28      Px                   2.006
     Ti    28      Py                   2.006
     Ti    28      Pz                   2.006
     Ti    28      S                    0.267
     Ti    28      Dzz                  0.574
     Ti    28      Dzy                  0.514
     Ti    28      Dzx                  0.546
     Ti    28      Dxx-yy               0.517
     Ti    28      Dxy                  0.565
     Ti    28      Px                   0.307
     Ti    28      Py                   0.321
     Ti    28      Pz                   0.352
     Ti    29      S                    2.003
     Ti    29      Px                   2.007
     Ti    29      Py                   2.006
     Ti    29      Pz                   2.005
     Ti    29      S                    0.275
     Ti    29      Dzz                  0.559
     Ti    29      Dzy                  0.471
     Ti    29      Dzx                  0.503
     Ti    29      Dxx-yy               0.623
     Ti    29      Dxy                  0.610
     Ti    29      Px                   0.329
     Ti    29      Py                   0.333
     Ti    29      Pz                   0.269
     Ti    30      S                    2.000
     Ti    30      Px                   2.003
     Ti    30      Py                   2.003
     Ti    30      Pz                   2.004
     Ti    30      S                    0.292
     Ti    30      Dzz                  0.498
     Ti    30      Dzy                  0.598
     Ti    30      Dzx                  0.581
     Ti    30      Dxx-yy               0.464
     Ti    30      Dxy                  0.471
     Ti    30      Px                   0.365
     Ti    30      Py                   0.362
     Ti    30      Pz                   0.334
     Ti    31      S                    2.003
     Ti    31      Px                   2.006
     Ti    31      Py                   2.006
     Ti    31      Pz                   2.006
     Ti    31      S                    0.259
     Ti    31      Dzz                  0.553
     Ti    31      Dzy                  0.493
     Ti    31      Dzx                  0.564
     Ti    31      Dxx-yy               0.551
     Ti    31      Dxy                  0.552
     Ti    31      Px                   0.305
     Ti    31      Py                   0.305
     Ti    31      Pz                   0.351
     Ti    32      S                    2.001
     Ti    32      Px                   2.003
     Ti    32      Py                   2.004
     Ti    32      Pz                   2.004
     Ti    32      S                    0.301
     Ti    32      Dzz                  0.514
     Ti    32      Dzy                  0.599
     Ti    32      Dzx                  0.604
     Ti    32      Dxx-yy               0.439
     Ti    32      Dxy                  0.484
     Ti    32      Px                   0.332
     Ti    32      Py                   0.315
     Ti    32      Pz                   0.335
     Ti    33      S                    2.003
     Ti    33      Px                   2.006
     Ti    33      Py                   2.006
     Ti    33      Pz                   2.006
     Ti    33      S                    0.263
     Ti    33      Dzz                  0.589
     Ti    33      Dzy                  0.485
     Ti    33      Dzx                  0.536
     Ti    33      Dxx-yy               0.544
     Ti    33      Dxy                  0.596
     Ti    33      Px                   0.299
     Ti    33      Py                   0.274
     Ti    33      Pz                   0.354
     Ti    34      S                    2.002
     Ti    34      Px                   2.005
     Ti    34      Py                   2.005
     Ti    34      Pz                   2.005
     Ti    34      S                    0.286
     Ti    34      Dzz                  0.526
     Ti    34      Dzy                  0.588
     Ti    34      Dzx                  0.573
     Ti    34      Dxx-yy               0.488
     Ti    34      Dxy                  0.490
     Ti    34      Px                   0.304
     Ti    34      Py                   0.348
     Ti    34      Pz                   0.337
     Ti    35      S                    2.003
     Ti    35      Px                   2.007
     Ti    35      Py                   2.005
     Ti    35      Pz                   2.005
     Ti    35      S                    0.271
     Ti    35      Dzz                  0.599
     Ti    35      Dzy                  0.542
     Ti    35      Dzx                  0.517
     Ti    35      Dxx-yy               0.554
     Ti    35      Dxy                  0.542
     Ti    35      Px                   0.296
     Ti    35      Py                   0.261
     Ti    35      Pz                   0.347
     Ti    36      S                    2.004
     Ti    36      Px                   2.007
     Ti    36      Py                   2.007
     Ti    36      Pz                   2.006
     Ti    36      S                    0.319
     Ti    36      Dzz                  0.574
     Ti    36      Dzy                  0.483
     Ti    36      Dzx                  0.494
     Ti    36      Dxx-yy               0.608
     Ti    36      Dxy                  0.623
     Ti    36      Px                   0.368
     Ti    36      Py                   0.378
     Ti    36      Pz                   0.240
     Ti    37      S                    2.002
     Ti    37      Px                   2.005
     Ti    37      Py                   2.005
     Ti    37      Pz                   2.006
     Ti    37      S                    0.283
     Ti    37      Dzz                  0.510
     Ti    37      Dzy                  0.583
     Ti    37      Dzx                  0.569
     Ti    37      Dxx-yy               0.528
     Ti    37      Dxy                  0.456
     Ti    37      Px                   0.340
     Ti    37      Py                   0.340
     Ti    37      Pz                   0.327
     Ti    38      S                    2.003
     Ti    38      Px                   2.006
     Ti    38      Py                   2.006
     Ti    38      Pz                   2.006
     Ti    38      S                    0.257
     Ti    38      Dzz                  0.556
     Ti    38      Dzy                  0.557
     Ti    38      Dzx                  0.511
     Ti    38      Dxx-yy               0.596
     Ti    38      Dxy                  0.508
     Ti    38      Px                   0.314
     Ti    38      Py                   0.304
     Ti    38      Pz                   0.345
     Ti    39      S                    2.003
     Ti    39      Px                   2.006
     Ti    39      Py                   2.005
     Ti    39      Pz                   2.006
     Ti    39      S                    0.290
     Ti    39      Dzz                  0.542
     Ti    39      Dzy                  0.600
     Ti    39      Dzx                  0.564
     Ti    39      Dxx-yy               0.498
     Ti    39      Dxy                  0.472
     Ti    39      Px                   0.300
     Ti    39      Py                   0.348
     Ti    39      Pz                   0.334
     Ti    40      S                    2.003
     Ti    40      Px                   2.006
     Ti    40      Py                   2.005
     Ti    40      Pz                   2.006
     Ti    40      S                    0.271
     Ti    40      Dzz                  0.578
     Ti    40      Dzy                  0.519
     Ti    40      Dzx                  0.521
     Ti    40      Dxx-yy               0.573
     Ti    40      Dxy                  0.542
     Ti    40      Px                   0.324
     Ti    40      Py                   0.259
     Ti    40      Pz                   0.337
     Ti    41      S                    2.004
     Ti    41      Px                   2.006
     Ti    41      Py                   2.007
     Ti    41      Pz                   2.006
     Ti    41      S                    0.269
     Ti    41      Dzz                  0.581
     Ti    41      Dzy                  0.506
     Ti    41      Dzx                  0.527
     Ti    41      Dxx-yy               0.606
     Ti    41      Dxy                  0.589
     Ti    41      Px                   0.306
     Ti    41      Py                   0.294
     Ti    41      Pz                   0.298
     Ti    42      S                    2.001
     Ti    42      Px                   2.004
     Ti    42      Py                   2.003
     Ti    42      Pz                   2.005
     Ti    42      S                    0.310
     Ti    42      Dzz                  0.483
     Ti    42      Dzy                  0.606
     Ti    42      Dzx                  0.639
     Ti    42      Dxx-yy               0.468
     Ti    42      Dxy                  0.450
     Ti    42      Px                   0.327
     Ti    42      Py                   0.373
     Ti    42      Pz                   0.309
     Ti    43      S                    2.003
     Ti    43      Px                   2.006
     Ti    43      Py                   2.007
     Ti    43      Pz                   2.006
     Ti    43      S                    0.277
     Ti    43      Dzz                  0.577
     Ti    43      Dzy                  0.502
     Ti    43      Dzx                  0.491
     Ti    43      Dxx-yy               0.575
     Ti    43      Dxy                  0.616
     Ti    43      Px                   0.330
     Ti    43      Py                   0.329
     Ti    43      Pz                   0.278
     Ti    44      S                    2.004
     Ti    44      Px                   2.007
     Ti    44      Py                   2.007
     Ti    44      Pz                   2.006
     Ti    44      S                    0.282
     Ti    44      Dzz                  0.577
     Ti    44      Dzy                  0.500
     Ti    44      Dzx                  0.495
     Ti    44      Dxx-yy               0.591
     Ti    44      Dxy                  0.598
     Ti    44      Px                   0.349
     Ti    44      Py                   0.334
     Ti    44      Pz                   0.291
     Ti    45      S                    2.001
     Ti    45      Px                   2.003
     Ti    45      Py                   2.003
     Ti    45      Pz                   2.005
     Ti    45      S                    0.313
     Ti    45      Dzz                  0.475
     Ti    45      Dzy                  0.622
     Ti    45      Dzx                  0.624
     Ti    45      Dxx-yy               0.467
     Ti    45      Dxy                  0.453
     Ti    45      Px                   0.324
     Ti    45      Py                   0.359
     Ti    45      Pz                   0.312
     Ti    46      S                    2.004
     Ti    46      Px                   2.008
     Ti    46      Py                   2.007
     Ti    46      Pz                   2.006
     Ti    46      S                    0.267
     Ti    46      Dzz                  0.621
     Ti    46      Dzy                  0.506
     Ti    46      Dzx                  0.485
     Ti    46      Dxx-yy               0.601
     Ti    46      Dxy                  0.602
     Ti    46      Px                   0.315
     Ti    46      Py                   0.290
     Ti    46      Pz                   0.293
     Ti    47      S                    2.001
     Ti    47      Px                   2.004
     Ti    47      Py                   2.004
     Ti    47      Pz                   2.005
     Ti    47      S                    0.294
     Ti    47      Dzz                  0.514
     Ti    47      Dzy                  0.578
     Ti    47      Dzx                  0.601
     Ti    47      Dxx-yy               0.474
     Ti    47      Dxy                  0.495
     Ti    47      Px                   0.323
     Ti    47      Py                   0.281
     Ti    47      Pz                   0.317
     Ti    48      S                    2.006
     Ti    48      Px                   2.008
     Ti    48      Py                   2.009
     Ti    48      Pz                   2.008
     Ti    48      S                    0.240
     Ti    48      Dzz                  0.575
     Ti    48      Dzy                  0.527
     Ti    48      Dzx                  0.513
     Ti    48      Dxx-yy               0.600
     Ti    48      Dxy                  0.591
     Ti    48      Px                   0.308
     Ti    48      Py                   0.304
     Ti    48      Pz                   0.353
     Ti    49      S                    2.005
     Ti    49      Px                   2.008
     Ti    49      Py                   2.007
     Ti    49      Pz                   2.007
     Ti    49      S                    0.236
     Ti    49      Dzz                  0.579
     Ti    49      Dzy                  0.501
     Ti    49      Dzx                  0.519
     Ti    49      Dxx-yy               0.601
     Ti    49      Dxy                  0.619
     Ti    49      Px                   0.304
     Ti    49      Py                   0.287
     Ti    49      Pz                   0.336
     Ti    50      S                    2.000
     Ti    50      Px                   2.003
     Ti    50      Py                   2.003
     Ti    50      Pz                   2.004
     Ti    50      S                    0.292
     Ti    50      Dzz                  0.502
     Ti    50      Dzy                  0.577
     Ti    50      Dzx                  0.612
     Ti    50      Dxx-yy               0.473
     Ti    50      Dxy                  0.457
     Ti    50      Px                   0.327
     Ti    50      Py                   0.363
     Ti    50      Pz                   0.333
     Ti    51      S                    2.005
     Ti    51      Px                   2.007
     Ti    51      Py                   2.008
     Ti    51      Pz                   2.007
     Ti    51      S                    0.256
     Ti    51      Dzz                  0.583
     Ti    51      Dzy                  0.516
     Ti    51      Dzx                  0.472
     Ti    51      Dxx-yy               0.579
     Ti    51      Dxy                  0.630
     Ti    51      Px                   0.311
     Ti    51      Py                   0.298
     Ti    51      Pz                   0.336
     Ti    52      S                    2.005
     Ti    52      Px                   2.009
     Ti    52      Py                   2.007
     Ti    52      Pz                   2.007
     Ti    52      S                    0.245
     Ti    52      Dzz                  0.582
     Ti    52      Dzy                  0.500
     Ti    52      Dzx                  0.519
     Ti    52      Dxx-yy               0.603
     Ti    52      Dxy                  0.608
     Ti    52      Px                   0.304
     Ti    52      Py                   0.289
     Ti    52      Pz                   0.344
     Ti    53      S                    2.001
     Ti    53      Px                   2.004
     Ti    53      Py                   2.004
     Ti    53      Pz                   2.005
     Ti    53      S                    0.296
     Ti    53      Dzz                  0.510
     Ti    53      Dzy                  0.592
     Ti    53      Dzx                  0.612
     Ti    53      Dxx-yy               0.465
     Ti    53      Dxy                  0.481
     Ti    53      Px                   0.342
     Ti    53      Py                   0.280
     Ti    53      Pz                   0.334
     Ti    54      S                    2.005
     Ti    54      Px                   2.008
     Ti    54      Py                   2.008
     Ti    54      Pz                   2.006
     Ti    54      S                    0.245
     Ti    54      Dzz                  0.584
     Ti    54      Dzy                  0.509
     Ti    54      Dzx                  0.484
     Ti    54      Dxx-yy               0.607
     Ti    54      Dxy                  0.611
     Ti    54      Px                   0.299
     Ti    54      Py                   0.320
     Ti    54      Pz                   0.349
     Ti    55      S                    2.005
     Ti    55      Px                   2.008
     Ti    55      Py                   2.007
     Ti    55      Pz                   2.006
     Ti    55      S                    0.226
     Ti    55      Dzz                  0.594
     Ti    55      Dzy                  0.499
     Ti    55      Dzx                  0.494
     Ti    55      Dxx-yy               0.598
     Ti    55      Dxy                  0.623
     Ti    55      Px                   0.294
     Ti    55      Py                   0.309
     Ti    55      Pz                   0.357
     Ti    56      S                    2.002
     Ti    56      Px                   2.005
     Ti    56      Py                   2.004
     Ti    56      Pz                   2.004
     Ti    56      S                    0.265
     Ti    56      Dzz                  0.561
     Ti    56      Dzy                  0.515
     Ti    56      Dzx                  0.523
     Ti    56      Dxx-yy               0.532
     Ti    56      Dxy                  0.580
     Ti    56      Px                   0.305
     Ti    56      Py                   0.304
     Ti    56      Pz                   0.345
     Ti    57      S                    2.005
     Ti    57      Px                   2.008
     Ti    57      Py                   2.008
     Ti    57      Pz                   2.007
     Ti    57      S                    0.262
     Ti    57      Dzz                  0.568
     Ti    57      Dzy                  0.518
     Ti    57      Dzx                  0.509
     Ti    57      Dxx-yy               0.597
     Ti    57      Dxy                  0.609
     Ti    57      Px                   0.312
     Ti    57      Py                   0.313
     Ti    57      Pz                   0.346
     Ti    58      S                    2.002
     Ti    58      Px                   2.005
     Ti    58      Py                   2.005
     Ti    58      Pz                   2.005
     Ti    58      S                    0.278
     Ti    58      Dzz                  0.524
     Ti    58      Dzy                  0.528
     Ti    58      Dzx                  0.590
     Ti    58      Dxx-yy               0.450
     Ti    58      Dxy                  0.549
     Ti    58      Px                   0.360
     Ti    58      Py                   0.321
     Ti    58      Pz                   0.336
     Ti    59      S                    2.003
     Ti    59      Px                   2.006
     Ti    59      Py                   2.006
     Ti    59      Pz                   2.005
     Ti    59      S                    0.258
     Ti    59      Dzz                  0.576
     Ti    59      Dzy                  0.500
     Ti    59      Dzx                  0.541
     Ti    59      Dxx-yy               0.542
     Ti    59      Dxy                  0.572
     Ti    59      Px                   0.299
     Ti    59      Py                   0.313
     Ti    59      Pz                   0.345
     Ti    60      S                    2.005
     Ti    60      Px                   2.008
     Ti    60      Py                   2.007
     Ti    60      Pz                   2.006
     Ti    60      S                    0.259
     Ti    60      Dzz                  0.594
     Ti    60      Dzy                  0.483
     Ti    60      Dzx                  0.508
     Ti    60      Dxx-yy               0.599
     Ti    60      Dxy                  0.607
     Ti    60      Px                   0.310
     Ti    60      Py                   0.322
     Ti    60      Pz                   0.334
     Ti    61      S                    2.003
     Ti    61      Px                   2.006
     Ti    61      Py                   2.006
     Ti    61      Pz                   2.005
     Ti    61      S                    0.279
     Ti    61      Dzz                  0.547
     Ti    61      Dzy                  0.510
     Ti    61      Dzx                  0.603
     Ti    61      Dxx-yy               0.471
     Ti    61      Dxy                  0.548
     Ti    61      Px                   0.334
     Ti    61      Py                   0.278
     Ti    61      Pz                   0.342
     Ti    62      S                    2.004
     Ti    62      Px                   2.008
     Ti    62      Py                   2.006
     Ti    62      Pz                   2.006
     Ti    62      S                    0.262
     Ti    62      Dzz                  0.607
     Ti    62      Dzy                  0.488
     Ti    62      Dzx                  0.503
     Ti    62      Dxx-yy               0.621
     Ti    62      Dxy                  0.545
     Ti    62      Px                   0.308
     Ti    62      Py                   0.335
     Ti    62      Pz                   0.325
     Ti    63      S                    2.002
     Ti    63      Px                   2.006
     Ti    63      Py                   2.005
     Ti    63      Pz                   2.005
     Ti    63      S                    0.287
     Ti    63      Dzz                  0.515
     Ti    63      Dzy                  0.588
     Ti    63      Dzx                  0.562
     Ti    63      Dxx-yy               0.505
     Ti    63      Dxy                  0.510
     Ti    63      Px                   0.291
     Ti    63      Py                   0.326
     Ti    63      Pz                   0.338
     Ti    64      S                    2.005
[...]
             Ti 56 -- V 3                    0.19        2.81439
             Ti 18 -- Ti 24                  0.40        2.81487
             Ti 30 -- Ti 32                  0.32        2.81505
             Ti 64 -- Ti 66                  0.16        2.81519
             Ti 2  -- Ti 7                   0.07        2.81652
             Ti 3  -- Ti 8                   0.04        2.81701
             Ti 69 -- V 3                    0.14        2.81748
             Ti 61 -- V 2                    0.31        2.81770
             Ti 10 -- Ti 13                  0.04        2.81800
             Ti 48 -- Ti 51                  0.04        2.81820
             Ti 65 -- Ti 66                  0.15        2.81844
             Ti 66 -- Ti 69                  0.29        2.81852
             Ti 27 -- Ti 30                  0.38        2.81861
             Ti 11 -- Ti 17                  0.03        2.81885
             Ti 18 -- Ti 21                  0.34        2.81949
             Ti 13 -- Ti 16                  0.04        2.82242
             Ti 22 -- Ti 25                  0.05        2.82258
             Ti 4  -- Ti 7                   0.07        2.82260
             Ti 3  -- Ti 5                   0.03        2.82367
              Al 5 -- Ti 45                  0.42        2.82411
             Ti 5  -- Ti 8                   0.03        2.82438
             Ti 50 -- Ti 53                  0.37        2.82483
             Ti 2  -- Ti 4                   0.03        2.82600
             Ti 10 -- Ti 16                  0.03        2.82607
             Ti 54 -- V 2                    0.20        2.82765
             Ti 35 -- Ti 38                  0.22        2.82768
             Ti 12 -- Ti 15                  0.37        2.82810
             Ti 35 -- Ti 40                  0.15        2.82866
             Ti 47 -- Ti 50                  0.35        2.82942
              Al 1 -- Ti 1                   0.34        2.83005
              Al 1 -- Ti 6                   0.34        2.83129
             Ti 27 -- Ti 32                  0.33        2.83183
             Ti 21 -- Ti 24                  0.36        2.83186
             Ti 28 -- Ti 33                  0.16        2.83206
              Al 3 -- Ti 59                  0.20        2.83221
             Ti 19 -- Ti 25                  0.04        2.83226
             Ti 61 -- Ti 62                  0.02        2.83330
              Al 5 -- Ti 42                  0.35        2.83415
             Ti 65 -- Ti 70                  0.09        2.83433
             Ti 9  -- Ti 12                  0.33        2.83542
             Ti 42 -- Ti 44                  0.20        2.83582
             Ti 61 -- V 3                    0.16        2.83646
             Ti 11 -- Ti 14                  0.07        2.83728
             Ti 52 -- Ti 55                  0.02        2.83853
             Ti 68 -- Ti 70                  0.06        2.83889
             Ti 2  -- Ti 37                  0.16        2.83922
             Ti 23 -- Ti 26                  0.11        2.83941
              Al 3 -- Ti 40                  0.24        2.83953
             Ti 67 -- Ti 69                  0.16        2.84138
             Ti 49 -- Ti 55                  0.03        2.84194
             Ti 62 -- V 2                    0.08        2.84326
             Ti 48 -- Ti 58                  0.09        2.84347
             Ti 20 -- Ti 26                  0.07        2.84493
             Ti 57 -- Ti 60                  0.09        2.84679
             Ti 63 -- Ti 69                  0.27        2.84752
             Ti 63 -- Ti 70                  0.07        2.84855
              Al 4 -- Ti 36                  0.20        2.85177
              Al 7 -- Ti 47                  0.24        2.85428
             Ti 4  -- Ti 39                  0.12        2.85500
             Ti 60 -- Ti 62                  0.07        2.85813
              Al 8 -- Ti 63                  0.25        2.85936
             Ti 31 -- Ti 33                  0.15        2.86001
             Ti 28 -- V 2                    0.16        2.86571
             Ti 18 -- Ti 62                  0.14        2.86619
             Ti 51 -- Ti 54                  0.10        2.86893
              Al 3 -- Ti 33                  0.22        2.86960
             Ti 34 -- Ti 39                  0.34        2.87042
             Ti 4  -- Ti 37                  0.14        2.87400
             Ti 7  -- Ti 39                  0.14        2.87413
              Al 2 -- Ti 32                  0.25        2.87602
             Ti 44 -- Ti 50                  0.14        2.87655
             Ti 1  -- Ti 64                  0.13        2.87716
              Al 7 -- Ti 27                  0.23        2.87792
             Ti 6  -- Ti 67                  0.10        2.87806
             Ti 34 -- Ti 35                  0.11        2.87864
             Ti 32 -- Ti 43                  0.11        2.87938
             Ti 66 -- Ti 67                  0.13        2.88054
             Ti 31 -- Ti 36                  0.14        2.88157
             Ti 36 -- Ti 56                  0.17        2.88193
              Al 2 -- V 2                    0.21        2.88245
             Ti 27 -- Ti 29                  0.14        2.88428
              Al 4 -- Ti 40                  0.23        2.88487
              Al 4 -- Ti 28                  0.18        2.88536
             Ti 11 -- Ti 37                  0.13        2.88711
             Ti 36 -- Ti 38                  0.17        2.88811
             Ti 44 -- Ti 66                  0.15        2.88852
             Ti 33 -- V 2                    0.14        2.89003
             Ti 53 -- Ti 67                  0.15        2.89017
             Ti 3  -- Ti 37                  0.14        2.89062
              Al 8 -- Ti 69                  0.24        2.89070
             Ti 2  -- Ti 34                  0.11        2.89107
             Ti 5  -- Ti 39                  0.10        2.89213
             Ti 46 -- Ti 53                  0.13        2.89233
             Ti 51 -- Ti 58                  0.09        2.89395
             Ti 68 -- Ti 69                  0.07        2.89404
             Ti 43 -- Ti 53                  0.10        2.89407
             Ti 5  -- Ti 37                  0.11        2.89534
             Ti 57 -- Ti 58                  0.13        2.89693
             Ti 33 -- Ti 61                  0.10        2.89798
             Ti 21 -- Ti 65                  0.18        2.89822
              Al 3 -- Ti 36                  0.17        2.89835
             Ti 64 -- Ti 67                  0.08        2.89929
              Al 6 -- Ti 47                  0.24        2.90005
             Ti 9  -- Ti 54                  0.14        2.90117
             Ti 41 -- Ti 43                  0.06        2.90164
             Ti 7  -- Ti 34                  0.12        2.90201
             Ti 48 -- V 2                    0.13        2.90227
             Ti 58 -- Ti 61                  0.27        2.90244
             Ti 60 -- Ti 61                  0.14        2.90343
             Ti 9  -- Ti 17                  0.14        2.90541
             Ti 45 -- Ti 46                  0.15        2.90567
              Al 6 -- Ti 66                  0.20        2.90635
             Ti 8  -- Ti 39                  0.12        2.90667
             Ti 35 -- Ti 63                  0.13        2.90725
              Al 1 -- Ti 64                  0.18        2.90750
             Ti 66 -- Ti 68                  0.18        2.90758
              Al 8 -- Ti 1                   0.20        2.90780
             Ti 14 -- Ti 39                  0.11        2.90796
             Ti 18 -- Ti 20                  0.13        2.90916
             Ti 11 -- Ti 34                  0.13        2.90947
              Al 6 -- Ti 63                  0.21        2.90960
             Ti 12 -- Ti 52                  0.10        2.90966
             Ti 51 -- Ti 61                  0.10        2.91105
             Ti 37 -- Ti 38                  0.09        2.91116
              Al 5 -- Ti 46                  0.21        2.91330
             Ti 24 -- Ti 68                  0.11        2.91343
             Ti 41 -- Ti 42                  0.13        2.91550
             Ti 56 -- V 2                    0.17        2.91565
             Ti 3  -- Ti 34                  0.10        2.91579
             Ti 24 -- Ti 60                  0.12        2.91686
              Al 5 -- Ti 17                  0.17        2.91687
             Ti 9  -- Ti 10                  0.12        2.91728
             Ti 24 -- Ti 62                  0.13        2.91742
             Ti 63 -- Ti 64                  0.11        2.91757
              Al 5 -- Al 6                   0.22        2.91919
             Ti 46 -- Ti 47                  0.11        2.91920
             Ti 15 -- Ti 54                  0.13        2.91924
              Al 8 -- Ti 6                   0.21        2.92001
             Ti 15 -- Ti 16                  0.12        2.92091
             Ti 39 -- Ti 40                  0.12        2.92465
             Ti 69 -- Ti 70                  0.04        2.92471
              Al 2 -- Ti 53                  0.24        2.92553
             Ti 28 -- Ti 58                  0.07        2.92638
             Ti 59 -- Ti 61                  0.12        2.92674
             Ti 8  -- Ti 34                  0.10        2.92782
             Ti 9  -- Ti 16                  0.12        2.92829
             Ti 29 -- Ti 47                  0.13        2.92982
             Ti 40 -- Ti 69                  0.12        2.92996
             Ti 24 -- Ti 70                  0.10        2.93015
             Ti 21 -- Ti 57                  0.15        2.93104
             Ti 18 -- Ti 70                  0.09        2.93112
             Ti 26 -- Ti 27                  0.15        2.93162
             Ti 6  -- Ti 7                   0.09        2.93174
             Ti 9  -- Ti 57                  0.09        2.93330
             Ti 44 -- Ti 45                  0.13        2.93355
             Ti 52 -- Ti 53                  0.12        2.93392
             Ti 1  -- Ti 7                   0.09        2.93400
             Ti 10 -- Ti 42                  0.09        2.93404
             Ti 21 -- Ti 68                  0.15        2.93409
             Ti 14 -- Ti 45                  0.13        2.93556
             Ti 38 -- Ti 39                  0.11        2.93573
             Ti 44 -- Ti 46                  0.10        2.93576
             Ti 18 -- Ti 56                  0.14        2.93625
             Ti 22 -- Ti 32                  0.12        2.93713
             Ti 63 -- Ti 65                  0.06        2.93812
              Al 6 -- Ti 50                  0.16        2.93814
             Ti 58 -- Ti 59                  0.16        2.93833
              Al 5 -- Ti 11                  0.18        2.93900
             Ti 14 -- Ti 42                  0.16        2.93928
             Ti 12 -- Ti 13                  0.11        2.94000
              Al 5 -- Ti 10                  0.14        2.94004
             Ti 12 -- Ti 14                  0.10        2.94009
             Ti 12 -- Ti 48                  0.10        2.94042
             Ti 11 -- Ti 42                  0.13        2.94074
              Al 1 -- Ti 5                   0.17        2.94084
             Ti 43 -- Ti 50                  0.09        2.94093
             Ti 31 -- Ti 58                  0.07        2.94149
              Al 7 -- Ti 53                  0.15        2.94198
             Ti 15 -- Ti 55                  0.15        2.94231
              Al 1 -- Ti 4                   0.15        2.94257
             Ti 16 -- Ti 18                  0.13        2.94262
             Ti 17 -- Ti 34                  0.12        2.94271
             Ti 47 -- Ti 55                  0.07        2.94296
              Al 1 -- Ti 2                   0.14        2.94331
             Ti 51 -- Ti 53                  0.12        2.94351
             Ti 29 -- Ti 58                  0.05        2.94388
              Al 1 -- Ti 67                  0.15        2.94417
             Ti 4  -- Ti 12                  0.13        2.94453
             Ti 15 -- Ti 17                  0.10        2.94555
             Ti 3  -- Ti 30                  0.15        2.94689
              Al 2 -- Ti 29                  0.21        2.94733
              Al 8 -- Ti 53                  0.17        2.94738
             Ti 43 -- Ti 45                  0.20        2.94751
             Ti 9  -- Ti 11                  0.14        2.94762
              Al 8 -- Ti 47                  0.18        2.94839
             Ti 6  -- Ti 25                  0.09        2.94900
              Al 1 -- Ti 65                  0.16        2.94927
             Ti 21 -- Ti 60                  0.14        2.94937
             Ti 58 -- Ti 60                  0.15        2.94972
             Ti 31 -- Ti 61                  0.07        2.95040
             Ti 41 -- Ti 50                  0.12        2.95042
             Ti 6  -- Ti 68                  0.10        2.95055
             Ti 17 -- Ti 39                  0.08        2.95075
             Ti 53 -- Ti 55                  0.04        2.95083
             Ti 19 -- Ti 27                  0.10        2.95135
             Ti 12 -- Ti 57                  0.14        2.95245
             Ti 12 -- Ti 49                  0.12        2.95251
             Ti 38 -- Ti 69                  0.12        2.95381
             Ti 20 -- Ti 21                  0.09        2.95437
             Ti 1  -- Ti 2                   0.11        2.95538
             Ti 15 -- Ti 52                  0.08        2.95546
             Ti 15 -- Ti 60                  0.12        2.95640
             Ti 46 -- Ti 69                  0.11        2.95653
             Ti 47 -- Ti 49                  0.08        2.95694
             Ti 19 -- Ti 30                  0.13        2.95725
             Ti 10 -- Ti 12                  0.10        2.95779
             Ti 8  -- Ti 27                  0.09        2.95782
             Ti 46 -- Ti 63                  0.13        2.95792
             Ti 4  -- Ti 6                   0.11        2.95826
             Ti 56 -- Ti 63                  0.12        2.95834
             Ti 28 -- Ti 34                  0.11        2.95839
             Ti 13 -- Ti 42                  0.12        2.95845
              Al 5 -- Ti 41                  0.16        2.95879
             Ti 18 -- Ti 57                  0.12        2.95900
             Ti 14 -- Ti 37                  0.11        2.95987
             Ti 11 -- Ti 12                  0.09        2.95990
             Ti 34 -- Ti 40                  0.12        2.96061
             Ti 31 -- Ti 37                  0.11        2.96156
             Ti 47 -- Ti 64                  0.09        2.96168
             Ti 24 -- Ti 25                  0.14        2.96207
             Ti 13 -- Ti 15                  0.11        2.96279
              Al 1 -- Ti 3                   0.15        2.96362
             Ti 5  -- Ti 32                  0.13        2.96391
             Ti 26 -- Ti 32                  0.13        2.96459
             Ti 56 -- Ti 59                  0.19        2.96474
             Ti 30 -- Ti 41                  0.09        2.96550
             Ti 18 -- Ti 25                  0.13        2.96563
             Ti 22 -- Ti 30                  0.12        2.96591
             Ti 50 -- Ti 52                  0.14        2.96627
             Ti 47 -- Ti 54                  0.13        2.96708
             Ti 14 -- Ti 15                  0.10        2.96788
             Ti 1  -- Ti 3                   0.12        2.96788
             Ti 48 -- Ti 50                  0.08        2.96791
             Ti 25 -- Ti 27                  0.08        2.96858
             Ti 50 -- Ti 51                  0.09        2.97006
             Ti 18 -- Ti 19                  0.09        2.97070
              Al 1 -- Ti 68                  0.13        2.97075
             Ti 8  -- Ti 32                  0.10        2.97111
             Ti 59 -- Ti 66                  0.12        2.97143
             Ti 1  -- Ti 25                  0.12        2.97180
             Ti 13 -- Ti 45                  0.12        2.97246
             Ti 5  -- Ti 6                   0.12        2.97333
             Ti 21 -- Ti 22                  0.11        2.97370
             Ti 5  -- Ti 30                  0.15        2.97384
             Ti 40 -- Ti 63                  0.09        2.97391
             Ti 49 -- Ti 50                  0.10        2.97489
             Ti 9  -- Ti 55                  0.10        2.97495
             Ti 44 -- Ti 69                  0.08        2.97522
             Ti 18 -- Ti 26                  0.12        2.97524
              Al 6 -- Ti 42                  0.19        2.97654
             Ti 32 -- V 1                    0.16        2.97696
             Ti 9  -- Ti 48                  0.12        2.97793
             Ti 2  -- Ti 12                  0.12        2.98032
             Ti 63 -- V 3                    0.16        2.98082
             Ti 1  -- Ti 19                  0.11        2.98089
             Ti 16 -- Ti 24                  0.13        2.98095
             Ti 2  -- Ti 9                   0.08        2.98110
             Ti 27 -- Ti 41                  0.15        2.98138
             Ti 22 -- Ti 24                  0.10        2.98185
             Ti 9  -- Ti 49                  0.07        2.98201
             Ti 1  -- Ti 65                  0.10        2.98213
             Ti 24 -- V 3                    0.17        2.98215
             Ti 44 -- Ti 53                  0.12        2.98258
              Al 1 -- Ti 22                  0.14        2.98306
             Ti 19 -- Ti 21                  0.11        2.98378
             Ti 6  -- Ti 8                   0.09        2.98480
             Ti 21 -- Ti 23                  0.10        2.98492
             Ti 35 -- Ti 37                  0.09        2.98503
             Ti 61 -- V 1                    0.11        2.98623
              Al 1 -- Ti 19                  0.14        2.98688
             Ti 3  -- Ti 27                  0.13        2.98689
             Ti 23 -- Ti 32                  0.11        2.98701
              Al 4 -- Ti 35                  0.16        2.98795
             Ti 25 -- Ti 32                  0.10        2.98889
             Ti 26 -- Ti 45                  0.09        2.98967
             Ti 1  -- Ti 70                  0.12        2.98994
             Ti 56 -- Ti 58                  0.13        2.99157
             Ti 23 -- Ti 42                  0.10        2.99350
             Ti 20 -- Ti 27                  0.12        2.99405
             Ti 38 -- Ti 66                  0.07        2.99407
              Al 7 -- Ti 32                  0.16        2.99512
             Ti 17 -- Ti 45                  0.12        2.99529
             Ti 35 -- Ti 66                  0.11        2.99598
             Ti 50 -- Ti 64                  0.11        2.99702
              Al 5 -- Ti 16                  0.14        2.99703
             Ti 1  -- Ti 8                   0.09        2.99730
             Ti 6  -- Ti 55                  0.11        2.99903
             Ti 47 -- Ti 48                  0.10        2.99920
             Ti 18 -- Ti 65                  0.11        2.99996
======================================================================

 
 A BibTeX formatted list of references used in this run has been written to 
 sqs_hex_sc3x3x3_Ti70Al8V3_frame0_10.bib
 
Initialisation time =     23.69 s
Calculation time    =   6420.11 s
Finalisation time   =      0.46 s
Total time          =   6444.27 s
Peak Memory Use     = 2606420 kB
 
Overall parallel efficiency rating: Mediocre (55%)
 
Data was distributed by:-
G-vector (16-way); efficiency rating: Mediocre (56%)
k-point (15-way); efficiency rating: Excellent (96%)
