 +-------------------------------------------------+
 |                                                 |
 |      CCC   AA    SSS  TTTTT  EEEEE  PPPP        |
 |     C     A  A  S       T    E      P   P       |
 |     C     AAAA   SS     T    EEE    PPPP        |
 |     C     A  A     S    T    E      P           |
 |      CCC  A  A  SSS     T    EEEEE  P           |
 |                                                 |
 +-------------------------------------------------+
 |                                                 |
 | Welcome to Academic Release CASTEP version 24.1 |
 | Ab Initio Total Energy Program                  |
 |                                                 |
 | Authors:                                        |
 | M. Segall, M. Probert, C. Pickard, P. Hasnip,   |
 | S. Clark, K. Refson, J. R. Yates,               |
 | A. Bartok-Partay, M. Payne                      |
 |                                                 |
 | Contributors:                                   |
 | P. Lindan, P. Haynes, J. White, V. Milman,      |
 | N. Govind, M. Gibson, P. Tulip, V. Cocula,      |
 | B. Montanari, D. Quigley, M. Glover,            |
 | L. Bernasconi, A. Perlov, M. Plummer,           |
 | E. McNellis, J. Meyer, J. Gale, D. Jochym       |
 | J. Aarons, B. Walker, R. Gillen, D. Jones       |
 | T. Green, I. J. Bush, C. J. Armstrong,          |
 | E. J. Higgins, E. L. Brown, M. S. McFly,        |
 | J. Wilkins, B-C. Shih, P. J. P. Byrne,          |
 | R. J. Maurer, J. C. Womack, J. Dziedzic,        |
 | L. LeBlanc, T. K. Stenczel, J. Kermode,         |
 | S. Sturniolo, B. Shi, B. Durham, M. Evans,      |
 | M. J. Smith, A. Tamerus, Z. Hawkhead,           |
 | V. Ravindran, T. Hollins, S. A. Joyce,          |
 | R. T. Strong, A. M. Reilly                      |
 |                                                 |
 | Copyright (c) 2000 - 2023                       |
 |                                                 |
 |     Distributed under license from Cambridge    |
 |     Enterprise for academic use only.           |
 |                                                 |
 | Please cite                                     |
 |                                                 |
 |     "First principles methods using CASTEP"     |
 |                                                 |
 |         Zeitschrift fuer Kristallographie       |
 |           220(5-6) pp. 567-570 (2005)           |
 |                                                 |
 | S. J. Clark, M. D. Segall, C. J. Pickard,       |
 | P. J. Hasnip, M. J. Probert, K. Refson,         |
 | M. C. Payne                                     |
 |                                                 |
 |       in all publications arising from          |
 |              your use of CASTEP                 |
 |                                                 |
 +-------------------------------------------------+
 |                                                 |
 |              http://www.castep.org              |
 |                                                 |
 +-------------------------------------------------+



 Compiled for linux_x86_64_gfortran10 on Tue, 02 May 2023 15:31:46 +0100
 from code version db08e394c+  default  Mon May 1 16:40:39 2023 +0100
 Compiler: GNU Fortran 10.2.0; Optimisation: fast
 Comms   : Open MPI v4.0.5
 MATHLIBS: openblas (LAPACK version 3.9.0)
 FFT Lib : fftw3 version fftw-3.3.8-sse2-avx-avx2-avx2_128
 Fundamental constants values: CODATA 2018

 Run started: Wed, 07 Feb 2024 18:46:55 +0000
 Info: number of up-spin electrons is not equal to the
       number of down-spins but spin_polarized=false
     - consider setting spin_polarized=true.

 Atomic calculation performed for Al: 1s2 2s2 2p6 3s2 3p1

 Converged in 54 iterations to an ae energy of -6603.783 eV

   ============================================================                
   | Pseudopotential Report - Date of generation  7-02-2024   |                
   ------------------------------------------------------------                
   | Element: Al Ionic charge:  3.00 Level of theory: PBE     |                
   | Atomic Solver: Koelling-Harmon                           |                
   |                                                          |                
   |               Reference Electronic Structure             |                
   |         Orbital         Occupation         Energy        |                
   |            3s              2.000           -0.285        |                
   |            3p              1.000           -0.100        |                
   |                                                          |                
   |                 Pseudopotential Definition               |                
   |        Beta     l      e      Rc     scheme   norm       |                
   |          1      0   -0.285   2.192     qc      0         |                
   |          2      0    0.250   2.192     qc      0         |                
   |          3      1   -0.100   2.192     qc      0         |                
   |          4      1    0.250   2.192     qc      0         |                
   |          5      2    0.000   2.000     qc      0         |                
   |          6      2    0.250   2.000     qc      0         |                
   |         loc     3    0.000   2.192     pn      0         |                
   |                                                          |                
   | Augmentation charge Rinner = 1.398                       |                
   | Partial core correction Rc = 1.398                       |                
   ------------------------------------------------------------                
   | "3|2.2|2.2|1.4|4|5|5|30:31:32U2U2"                       |                
   ------------------------------------------------------------                
   |      Author: Chris J. Pickard, Cambridge University      |                
   ============================================================                

 Atomic calculation performed for Ti: 1s2 2s2 2p6 3s2 3p6 3d2 4s2

 Converged in 79 iterations to an ae energy of -23226.658 eV

   ============================================================                
   | Pseudopotential Report - Date of generation  7-02-2024   |                
   ------------------------------------------------------------                
   | Element: Ti Ionic charge: 12.00 Level of theory: PBE     |                
   | Atomic Solver: Koelling-Harmon                           |                
   |                                                          |                
   |               Reference Electronic Structure             |                
   |         Orbital         Occupation         Energy        |                
   |            3s              2.000           -2.302        |                
   |            3p              6.000           -1.428        |                
   |            4s              2.000           -0.164        |                
   |            3d              2.000           -0.157        |                
   |                                                          |                
   |                 Pseudopotential Definition               |                
   |        Beta     l      e      Rc     scheme   norm       |                
   |          1      0   -2.302   1.793     qc      0         |                
   |          2      0   -0.164   1.793     qc      0         |                
   |          3      0    0.250   1.793     qc      0         |                
   |          4      1   -1.428   1.793     qc      0         |                
   |          5      1    0.250   1.793     qc      0         |                
   |          6      2   -0.157   1.793     qc      0         |                
   |          7      2    0.250   1.793     qc      0         |                
   |         loc     3    0.000   1.793     pn      0         |                
   |                                                          |                
   | Augmentation charge Rinner = 1.263                       |                
   | Partial core correction Rc = 1.263                       |                
   ------------------------------------------------------------                
   | "3|1.8|9|10|11|30U:40:31:32(qc=5.5)"                     |                
   ------------------------------------------------------------                
   |      Author: Chris J. Pickard, Cambridge University      |                
   ============================================================                

 Atomic calculation performed for V: 1s2 2s2 2p6 3s2 3p6 3d3 4s2

 Converged in 81 iterations to an ae energy of -25823.733 eV

   ============================================================                
   | Pseudopotential Report - Date of generation  7-02-2024   |                
   ------------------------------------------------------------                
   | Element: V Ionic charge: 13.00 Level of theory: PBE      |                
   | Atomic Solver: Koelling-Harmon                           |                
   |                                                          |                
   |               Reference Electronic Structure             |                
   |         Orbital         Occupation         Energy        |                
   |            3s              2.000           -2.581        |                
   |            3p              6.000           -1.618        |                
   |            3d              3.000           -0.190        |                
   |            4s              2.000           -0.173        |                
   |                                                          |                
   |                 Pseudopotential Definition               |                
   |        Beta     l      e      Rc     scheme   norm       |                
   |          1      0   -2.581   1.803     qc      0         |                
   |          2      0   -0.173   1.803     qc      0         |                
   |          3      0    0.250   1.803     qc      0         |                
   |          4      1   -1.618   1.803     qc      0         |                
   |          5      1    0.250   1.803     qc      0         |                
   |          6      2   -0.190   1.803     qc      0         |                
   |          7      2    0.250   1.803     qc      0         |                
   |         loc     3    0.000   1.803     pn      0         |                
   |                                                          |                
   | Augmentation charge Rinner = 0.600                       |                
   | Partial core correction Rc = 0.600                       |                
   ------------------------------------------------------------                
   | "3|1.8|1.8|0.6|12|14|16|30U:40:31:32(qc=7)"              |                
   ------------------------------------------------------------                
   |      Author: Chris J. Pickard, Cambridge University      |                
   ============================================================                

 Pseudo atomic calculation performed for Al 3s2 3p1

 Converged in 15 iterations to a total energy of -107.1308 eV

 Pseudo atomic calculation performed for Ti 3s2 3p6 3d2 4s2

 Converged in 34 iterations to a total energy of -1587.0236 eV

 Pseudo atomic calculation performed for V 3s2 3p6 3d3 4s2

 Converged in 35 iterations to a total energy of -2065.7874 eV
 Calculation parallelised over 240 processes.
 Data is distributed by G-vector(16-way) and k-point(15-way)

 ************************************ Title ************************************
 

 ***************************** General Parameters ******************************
  
 output verbosity                               : normal  (1)
 write checkpoint data to                       : sqs_hex_sc3x3x3_Ti70Al8V3_frame0_08.check
 type of calculation                            : single point energy
 stress calculation                             : on
 density difference calculation                 : off
 electron localisation func (ELF) calculation   : off
 Hirshfeld analysis                             : off
 polarisation (Berry phase) analysis            : off
 molecular orbital projected DOS                : off
 deltaSCF calculation                           : off
 unlimited duration calculation
 timing information                             : on
 memory usage estimate                          : on
 write extra output files                       : on
 write final potential to formatted file        : off
 write final density to formatted file          : off
 write BibTeX reference list                    : on
 write OTFG pseudopotential files               : on
 write electrostatic potential file             : on
 write bands file                               : on
 checkpoint writing                             : off
  
 output         length unit                     : A
 output           mass unit                     : amu
 output           time unit                     : ps
 output         charge unit                     : e
 output           spin unit                     : hbar/2
 output         energy unit                     : eV
 output          force unit                     : eV/A
 output       velocity unit                     : A/ps
 output       pressure unit                     : GPa
 output     inv_length unit                     : 1/A
 output      frequency unit                     : cm-1
 output force constant unit                     : eV/A**2
 output         volume unit                     : A**3
 output   IR intensity unit                     : (D/A)**2/amu
 output         dipole unit                     : D
 output         efield unit                     : eV/A/e
 output        entropy unit                     : J/mol/K
 output    efield chi2 unit                     : pm/V
  
 wavefunctions paging                           : none
 random number generator seed                   :  184655322
 data distribution                              : k-point only
 optimization strategy                          : maximize speed(+++)

 *********************** Exchange-Correlation Parameters ***********************
  
 using functional                               : Perdew Burke Ernzerhof
 relativistic treatment                         : Koelling-Harmon
 DFT+D: Semi-empirical dispersion correction    : off

 ************************* Pseudopotential Parameters **************************
  
 pseudopotential representation                 : reciprocal space
 <beta|phi> representation                      : reciprocal space
 spin-orbit coupling                            : off

 **************************** Basis Set Parameters *****************************
  
 plane wave basis set cut-off                   :   800.0000   eV
 size of standard grid                          :     2.0000
 size of   fine   gmax                          :    28.9810   1/A
 largest prime factor in FFT                    :          5
 finite basis set correction                    : automatic
 number of sample energies                      :          3
           sample  spacing                      :     5.0000   eV

 **************************** Electronic Parameters ****************************
  
 number of  electrons                           :  903.0    
 net charge of system                           :  0.000    
 treating system as non-spin-polarized
 number of bands                                :        487

 ********************* Electronic Minimization Parameters **********************
  
 Method: Treating system as metallic with density mixing treatment of electrons,
         and number of  SD  steps               :          1
         and number of  CG  steps               :          4
  
 total energy / atom convergence tol.           : 0.1000E-05   eV
 eigen-energy convergence tolerance             : 0.1663E-06   eV
 max force / atom convergence tol.              : ignored
 convergence tolerance window                   :          3   cycles
 max. number of SCF cycles                      :         30
 number of fixed-spin iterations                :         10
 smearing scheme                                : Gaussian
 smearing width                                 : 0.5000E-01   eV
 Fermi energy convergence tolerance             : 0.2721E-13   eV
 periodic dipole correction                     : NONE

 ************************** Density Mixing Parameters **************************
  
 density-mixing scheme                          : Pulay
 max. length of mixing history                  :         20
 charge density mixing amplitude                : 0.8000    
 cut-off energy for mixing                      :  800.0       eV
 charge density mixing g-vector                 :  1.500       1/A

 *********************** Population Analysis Parameters ************************
  
 Population analysis with cutoff                :  3.000       A
 Population analysis output                     : summary and pdos components

 ******************************* Developer Code ********************************
  
 PARALLEL: kpoint=15 : ENDPARALLEL
 no_improve_wvfn

 *******************************************************************************
  

                           -------------------------------
                                      Unit Cell
                           -------------------------------
        Real Lattice(A)                      Reciprocal Lattice(1/A)
     6.9035300   -11.8388760    -0.0591350        0.455070468  -0.265369050   0.001329058
     6.9035300    11.8388760     0.0591750        0.455070476   0.265369036  -0.001326370
    -0.0000250     0.0423510     8.4646560       -0.000002151  -0.003709048   0.742303336

                       Lattice parameters(A)       Cell Angles
                    a =     13.704788          alpha =   89.505055
                    b =     13.704788          beta  =   90.494948
                    c =      8.464762          gamma =  119.505667

                       Current cell volume =          1383.598683       A**3
                                   density =             2.688183   AMU/A**3
                                           =             4.463833     g/cm^3

                           -------------------------------
                                     Cell Contents
                           -------------------------------
                         Total number of ions in cell =   81
                      Total number of species in cell =    3
                        Max number of any one species =   70

            xxxxxxxxxxxxxxxxxxxxxxxxxxxxxxxxxxxxxxxxxxxxxxxxxxxxxxxxxxxx
            x  Element    Atom        Fractional coordinates of atoms  x
            x            Number           u          v          w      x
            x----------------------------------------------------------x
            x  Al           1        -0.000247  -0.001326   0.330733   x 
            x  Al           2         0.561171   0.117172   0.794242   x 
            x  Al           3         0.552346   0.444073   0.652557   x 
            x  Al           4         0.560953   0.442024   0.973541   x 
            x  Al           5         0.336101   0.664673  -0.004848   x 
            x  Al           6         0.557634   0.777502   0.155799   x 
            x  Al           7         0.450688   0.900541   0.839547   x 
            x  Al           8         0.779252   0.889231   0.832163   x 
            x  Ti           1        -0.001779  -0.002587  -0.003597   x 
            x  Ti           2         0.108549   0.219909   0.163498   x 
            x  Ti           3         0.222498   0.110493   0.162162   x 
            x  Ti           4         0.106828   0.220019   0.497345   x 
            x  Ti           5         0.221687   0.110436   0.495743   x 
            x  Ti           6        -0.001662  -0.002396   0.665211   x 
            x  Ti           7         0.108640   0.218419   0.830768   x 
            x  Ti           8         0.224869   0.111682   0.829381   x 
            x  Ti           9         0.003632   0.336991  -0.002433   x 
            x  Ti          10         0.115427   0.556488   0.162964   x 
            x  Ti          11         0.225239   0.444777   0.164822   x 
            x  Ti          12         0.002551   0.334690   0.332524   x 
            x  Ti          13         0.112660   0.557161   0.495839   x 
            x  Ti          14         0.223460   0.446833   0.499970   x 
            x  Ti          15        -0.000455   0.335350   0.666586   x 
            x  Ti          16         0.109243   0.556232   0.829239   x 
            x  Ti          17         0.221769   0.444388   0.831850   x 
            x  Ti          18         0.000365   0.665542  -0.004249   x 
            x  Ti          19         0.112536   0.889715   0.162442   x 
            x  Ti          20         0.217888   0.775277   0.164047   x 
            x  Ti          21        -0.005464   0.664090   0.328735   x 
            x  Ti          22         0.113142   0.888943   0.494455   x 
            x  Ti          23         0.221125   0.776339   0.492681   x 
            x  Ti          24        -0.004545   0.664505   0.663284   x 
            x  Ti          25         0.109696   0.888687   0.827867   x 
            x  Ti          26         0.224622   0.779543   0.828082   x 
            x  Ti          27         0.333992   0.000309  -0.006320   x 
            x  Ti          28         0.451283   0.234852   0.159903   x 
            x  Ti          29         0.556528   0.110575   0.142310   x 
            x  Ti          30         0.336418   0.005066   0.326601   x 
            x  Ti          31         0.452068   0.236456   0.487518   x 
            x  Ti          32         0.334858   0.002202   0.659143   x 
            x  Ti          33         0.451035   0.232520   0.825347   x 
            x  Ti          34         0.325672   0.330257  -0.001417   x 
            x  Ti          35         0.451406   0.548786   0.155394   x 
            x  Ti          36         0.558241   0.447419   0.310247   x 
            x  Ti          37         0.320581   0.326511   0.328374   x 
            x  Ti          38         0.449629   0.546337   0.489433   x 
            x  Ti          39         0.321492   0.327665   0.659526   x 
            x  Ti          40         0.449650   0.548696   0.821232   x 
            x  Ti          41         0.439522   0.885989   0.165315   x 
            x  Ti          42         0.335897   0.666633   0.329957   x 
            x  Ti          43         0.446670   0.896220   0.507807   x 
            x  Ti          44         0.552530   0.775180   0.482160   x 
            x  Ti          45         0.337370   0.669584   0.661591   x 
            x  Ti          46         0.554897   0.777830   0.828963   x 
            x  Ti          47         0.667139  -0.002828  -0.004772   x 
            x  Ti          48         0.780331   0.221598   0.168313   x 
            x  Ti          49         0.888455   0.112281   0.165778   x 
            x  Ti          50         0.662668  -0.004470   0.329432   x 
            x  Ti          51         0.770173   0.217601   0.500950   x 
            x  Ti          52         0.886936   0.114703   0.494753   x 
            x  Ti          53         0.667112  -0.005315   0.663059   x 
            x  Ti          54         0.782897   0.225112   0.839423   x 
            x  Ti          55         0.889225   0.112704   0.830038   x 
            x  Ti          56         0.769794   0.544721   0.135186   x 
            x  Ti          57         0.892755   0.443330   0.164231   x 
            x  Ti          58         0.671932   0.327119   0.321028   x 
            x  Ti          59         0.762578   0.547571   0.485135   x 
            x  Ti          60         0.888702   0.444169   0.500467   x 
            x  Ti          61         0.669707   0.333575   0.663686   x 
            x  Ti          62         0.877221   0.448702   0.837333   x 
            x  Ti          63         0.671184   0.674149  -0.005626   x 
            x  Ti          64         0.782764   0.892879   0.161762   x 
            x  Ti          65         0.888461   0.774609   0.169204   x 
            x  Ti          66         0.675867   0.682590   0.325152   x 
            x  Ti          67         0.781058   0.892616   0.504270   x 
            x  Ti          68         0.889891   0.775228   0.499151   x 
            x  Ti          69         0.670677   0.675987   0.657990   x 
            x  Ti          70         0.885427   0.769594   0.834433   x 
            x  V            1         0.552039   0.117615   0.474329   x 
            x  V            2         0.663753   0.316479  -0.004301   x 
            x  V            3         0.761099   0.553177   0.803565   x 
            xxxxxxxxxxxxxxxxxxxxxxxxxxxxxxxxxxxxxxxxxxxxxxxxxxxxxxxxxxxx


                         No user defined ionic velocities

                           -------------------------------
                                   Details of Species
                           -------------------------------

                               Mass of species in AMU
                                    Al   26.9815400
                                    Ti   47.8670000
                                    V   50.9415000

                          Electric Quadrupole Moment (Barn)
                                    Al    0.1466000 Isotope 27
                                    Ti    0.3020000 Isotope 47
                                    V   -0.0520000 Isotope 51

                          Files used for pseudopotentials:
                                    Al 3|2.2|2.2|1.4|4|5|5|30:31:32U2U2
                                    Ti 3|1.8|9|10|11|30U:40:31:32(qc=5.5)
                                    V 3|1.8|1.8|0.6|12|14|16|30U:40:31:32(qc=7)

                           -------------------------------
                              k-Points For BZ Sampling
                           -------------------------------
                       MP grid size for SCF calculation is  5  5  6
                            with an offset of   0.000  0.000  0.000
                       Number of kpoints used =            75

                           -------------------------------
                               Symmetry and Constraints
                           -------------------------------

                      Maximum deviation from symmetry =  0.00000         ANG

                      Number of symmetry operations   =           1
                      Number of ionic constraints     =           3
                      Point group of crystal =     1: C1, 1, 1
                      Space group of crystal =     1: P1, P 1

             Set iprint > 1 for details on symmetry rotations/translations

                         Centre of mass is constrained
             Set iprint > 1 for details of linear ionic constraints

                         Number of cell constraints= 0
                         Cell constraints are:  1 2 3 4 5 6

                         External pressure/stress (GPa)
                          0.00000   0.00000   0.00000
                                    0.00000   0.00000
                                              0.00000
 
+---------------- MEMORY AND SCRATCH DISK ESTIMATES PER PROCESS --------------+
|                                                     Memory          Disk    |
| Baseline code, static data and system overhead      591.0 MB         0.0 MB |
| BLAS internal memory storage                          0.0 MB         0.0 MB |
| Model and support data                              929.5 MB         0.0 MB |
| Electronic energy minimisation requirements         444.5 MB         0.0 MB |
| Force calculation requirements                       15.9 MB         0.0 MB |
| Stress calculation requirements                      17.2 MB         0.0 MB |
|                                               ----------------------------- |
| Approx. total storage required per process         1965.0 MB         0.0 MB |
|                                                                             |
| Requirements will fluctuate during execution and may exceed these estimates |
+-----------------------------------------------------------------------------+
Calculating finite basis set correction with  3 cut-off energies.
Calculating total energy with cut-off of  790.000 eV.
------------------------------------------------------------------------ <-- SCF
SCF loop      Energy           Fermi           Energy gain       Timer   <-- SCF
                               energy          per atom          (sec)   <-- SCF
------------------------------------------------------------------------ <-- SCF
Initial  -1.06801905E+005  0.00000000E+000                        34.27  <-- SCF
      1  -1.15676746E+005  1.17272928E+001   1.09565929E+002     225.91  <-- SCF
      2  -1.18524108E+005  9.10135029E+000   3.51526280E+001     383.50  <-- SCF
      3  -1.18686175E+005  8.88117670E+000   2.00082264E+000     545.20  <-- SCF
      4  -1.18708312E+005  8.05005641E+000   2.73299676E-001     736.37  <-- SCF
      5  -1.18695129E+005  8.27406062E+000  -1.62755217E-001     933.92  <-- SCF
      6  -1.18687648E+005  8.43946265E+000  -9.23611521E-002    1121.58  <-- SCF
      7  -1.18682873E+005  8.45602830E+000  -5.89461635E-002    1318.16  <-- SCF
      8  -1.18684184E+005  8.40236169E+000   1.61845163E-002    1508.84  <-- SCF
      9  -1.18682787E+005  8.40279152E+000  -1.72441989E-002    1686.80  <-- SCF
     10  -1.18682570E+005  8.38670168E+000  -2.67803932E-003    1871.69  <-- SCF
     11  -1.18682665E+005  8.38127793E+000   1.16543237E-003    2055.89  <-- SCF
     12  -1.18682567E+005  8.37912972E+000  -1.20797098E-003    2230.74  <-- SCF
     13  -1.18682551E+005  8.37942545E+000  -2.03021457E-004    2411.69  <-- SCF
     14  -1.18682552E+005  8.37990443E+000   1.27710936E-005    2591.97  <-- SCF
     15  -1.18682549E+005  8.37987064E+000  -3.29164487E-005    2747.18  <-- SCF
     16  -1.18682549E+005  8.37987342E+000   4.46125775E-006    2902.64  <-- SCF
     17  -1.18682549E+005  8.37998883E+000  -4.06316350E-006    3042.40  <-- SCF
     18  -1.18682549E+005  8.37998811E+000  -5.32186811E-009    3149.34  <-- SCF
     19  -1.18682549E+005  8.37998163E+000  -7.85844803E-008    3255.37  <-- SCF
------------------------------------------------------------------------ <-- SCF
 
Final energy, E             =  -118682.4378076     eV
Final free energy (E-TS)    =  -118682.5489948     eV
(energies not corrected for finite basis set)
 
NB est. 0K energy (E-0.5TS)      =  -118682.4934012     eV
 
Calculating total energy with cut-off of  795.000 eV.
------------------------------------------------------------------------ <-- SCF
SCF loop      Energy           Fermi           Energy gain       Timer   <-- SCF
                               energy          per atom          (sec)   <-- SCF
------------------------------------------------------------------------ <-- SCF
Initial  -1.18682438E+005  0.00000000E+000                      3286.29  <-- SCF
      1  -1.18682552E+005  8.38006770E+000   1.40700685E-003    3428.66  <-- SCF
      2  -1.18682552E+005  8.38006620E+000   3.92163383E-006    3577.56  <-- SCF
      3  -1.18682598E+005  8.37875006E+000   5.66842249E-004    3758.12  <-- SCF
      4  -1.18682551E+005  8.38037436E+000  -5.77251513E-004    3932.39  <-- SCF
      5  -1.18682550E+005  8.38002299E+000  -1.16895007E-005    4096.48  <-- SCF
      6  -1.18682550E+005  8.38001030E+000   3.05135287E-006    4241.22  <-- SCF
      7  -1.18682550E+005  8.37996424E+000  -6.68031940E-007    4350.65  <-- SCF
      8  -1.18682550E+005  8.37994692E+000  -9.99171724E-009    4455.88  <-- SCF
------------------------------------------------------------------------ <-- SCF
 
Final energy, E             =  -118682.4392697     eV
Final free energy (E-TS)    =  -118682.5504405     eV
(energies not corrected for finite basis set)
 
NB est. 0K energy (E-0.5TS)      =  -118682.4948551     eV
 
Calculating total energy with cut-off of  800.000 eV.
------------------------------------------------------------------------ <-- SCF
SCF loop      Energy           Fermi           Energy gain       Timer   <-- SCF
                               energy          per atom          (sec)   <-- SCF
------------------------------------------------------------------------ <-- SCF
Initial  -1.18682439E+005  0.00000000E+000                      4486.49  <-- SCF
      1  -1.18682562E+005  8.37992322E+000   1.51936899E-003    4655.92  <-- SCF
      2  -1.18682562E+005  8.37991934E+000   3.54722614E-006    4799.59  <-- SCF
      3  -1.18682829E+005  8.37791471E+000   3.29361397E-003    4983.51  <-- SCF
      4  -1.18682557E+005  8.38238349E+000  -3.36277895E-003    5162.42  <-- SCF
      5  -1.18682551E+005  8.38015907E+000  -7.45712246E-005    5330.11  <-- SCF
      6  -1.18682552E+005  8.37998951E+000   2.05668570E-005    5494.77  <-- SCF
      7  -1.18682552E+005  8.37993339E+000  -5.23794526E-006    5644.48  <-- SCF
      8  -1.18682552E+005  8.37987752E+000  -1.59361260E-006    5758.77  <-- SCF
      9  -1.18682552E+005  8.37992125E+000  -1.70310779E-007    5866.55  <-- SCF
     10  -1.18682552E+005  8.37992607E+000  -1.79859465E-007    5972.74  <-- SCF
------------------------------------------------------------------------ <-- SCF
 
Final energy, E             =  -118682.4406045     eV
Final free energy (E-TS)    =  -118682.5517972     eV
(energies not corrected for finite basis set)
 
NB est. 0K energy (E-0.5TS)      =  -118682.4962008     eV
 
 For future reference: finite basis dEtot/dlog(Ecut) =      -0.222631eV
 Total energy corrected for finite basis set = -118682.551800 eV

 ************************** Forces **************************
 *                                                          *
 *               Cartesian components (eV/A)                *
 * -------------------------------------------------------- *
 *                         x            y            z      *
 *                                                          *
 * Al              1      0.01997      0.03252      0.00837 *
 * Al              2     -0.18990     -0.09026      0.09367 *
 * Al              3      0.09051     -0.00090     -0.01601 *
 * Al              4      0.02244      0.04699      0.00087 *
 * Al              5     -0.05173      0.01542     -0.04582 *
 * Al              6     -0.04545      0.01056     -0.01793 *
 * Al              7     -0.12268     -0.09528      0.12121 *
 * Al              8      0.00855      0.08567      0.04589 *
 * Ti              1      0.05509     -0.06785      0.04550 *
 * Ti              2     -0.09260      0.03900      0.02437 *
 * Ti              3      0.06774     -0.04406     -0.01528 *
 * Ti              4     -0.06534      0.01725     -0.02977 *
 * Ti              5      0.00500      0.01741     -0.04015 *
 * Ti              6      0.04321      0.00183     -0.04925 *
 * Ti              7     -0.05034      0.07751     -0.00028 *
 * Ti              8      0.08108     -0.00359     -0.00686 *
 * Ti              9      0.04399     -0.03900     -0.04629 *
 * Ti             10     -0.00919      0.05834      0.01778 *
 * Ti             11      0.06407     -0.06037     -0.04437 *
 * Ti             12     -0.06016      0.01891     -0.01006 *
 * Ti             13     -0.01963      0.01284      0.00317 *
 * Ti             14      0.05777     -0.03225     -0.07449 *
 * Ti             15     -0.00902     -0.02800      0.04261 *
 * Ti             16      0.05068      0.03195      0.01129 *
 * Ti             17      0.02495      0.00836     -0.06988 *
 * Ti             18     -0.09716      0.01179     -0.10159 *
 * Ti             19     -0.08070      0.04068      0.03523 *
 * Ti             20      0.11181     -0.02889      0.00341 *
 * Ti             21      0.04433     -0.04109     -0.00332 *
 * Ti             22     -0.00758      0.02175     -0.01869 *
 * Ti             23      0.02773     -0.00278     -0.02507 *
 * Ti             24      0.00250     -0.01109      0.09389 *
 * Ti             25     -0.01536     -0.09194     -0.01208 *
 * Ti             26      0.04026     -0.08711      0.05538 *
 * Ti             27     -0.09913      0.05772      0.06810 *
 * Ti             28      0.04052     -0.08213      0.02608 *
 * Ti             29      0.02455      0.07195      0.10213 *
 * Ti             30     -0.01448      0.05595     -0.02766 *
 * Ti             31     -0.08842     -0.09260     -0.10634 *
 * Ti             32      0.00112     -0.00892      0.04000 *
 * Ti             33     -0.03752     -0.17112      0.04003 *
 * Ti             34     -0.01688      0.05513     -0.07778 *
 * Ti             35      0.01762      0.10653      0.08574 *
 * Ti             36     -0.12880      0.00314      0.22018 *
 * Ti             37      0.00770     -0.00040     -0.06464 *
 * Ti             38      0.05453      0.13756     -0.09106 *
 * Ti             39      0.07880     -0.04261      0.12860 *
 * Ti             40     -0.03792      0.09154     -0.07254 *
 * Ti             41      0.01032     -0.03187      0.05291 *
 * Ti             42      0.00528      0.04873     -0.06878 *
 * Ti             43     -0.04319     -0.10614     -0.02319 *
 * Ti             44      0.07843      0.05794     -0.00871 *
 * Ti             45      0.03535      0.04694     -0.01000 *
 * Ti             46      0.00075     -0.06788     -0.06473 *
 * Ti             47      0.01064      0.04333      0.00710 *
 * Ti             48      0.06475      0.03000     -0.03871 *
 * Ti             49     -0.04771     -0.00611     -0.01034 *
 * Ti             50      0.06578      0.02316     -0.06855 *
 * Ti             51      0.05471     -0.12382     -0.06644 *
 * Ti             52     -0.01412     -0.03610     -0.03544 *
 * Ti             53     -0.03679      0.02884     -0.02062 *
 * Ti             54     -0.07955      0.02142      0.04138 *
 * Ti             55      0.03680      0.09445      0.04211 *
 * Ti             56      0.18016      0.03385      0.29109 *
 * Ti             57     -0.04436      0.06036     -0.09644 *
 * Ti             58      0.00781      0.13392      0.04577 *
 * Ti             59      0.10277     -0.09803     -0.05924 *
 * Ti             60     -0.03321      0.02609     -0.04713 *
 * Ti             61     -0.11490      0.01843     -0.04210 *
 * Ti             62     -0.02176     -0.00172     -0.02982 *
 * Ti             63     -0.10027     -0.03967     -0.00134 *
 * Ti             64     -0.01779      0.01934      0.02680 *
 * Ti             65     -0.02943      0.03951     -0.08029 *
 * Ti             66     -0.07050     -0.06277     -0.04912 *
 * Ti             67      0.04290     -0.00360     -0.02374 *
 * Ti             68     -0.05671      0.04156     -0.12499 *
 * Ti             69     -0.11322     -0.07316      0.03056 *
 * Ti             70      0.01840     -0.02140     -0.12888 *
 * V               1     -0.04575     -0.01877      0.02686 *
 * V               2      0.10907      0.09799      0.07903 *
 * V               3      0.29884     -0.18090      0.20871 *
 *                                                          *
 ************************************************************

 ***************** Stress Tensor *****************
 *                                               *
 *          Cartesian components (GPa)           *
 * --------------------------------------------- *
 *             x             y             z     *
 *                                               *
 *  x      1.874499      0.021317     -0.215574  *
 *  y      0.021317      0.850821      0.772479  *
 *  z     -0.215574      0.772479      0.553693  *
 *                                               *
 *  Pressure:   -1.0930                          *
 *                                               *
 *************************************************

 Pseudo atomic calculation performed for Al 3s2 3p1

 Converged in 15 iterations to a total energy of -107.1308 eV

 Pseudo atomic calculation performed for Ti 3s2 3p6 3d2 4s2

 Converged in 34 iterations to a total energy of -1587.0236 eV

 Pseudo atomic calculation performed for V 3s2 3p6 3d3 4s2

 Converged in 35 iterations to a total energy of -2065.7874 eV
Charge spilling parameter for spin component 1 = 0.08%

            Orbital Populations       
     Ion    Atom   Orbital             Charge
  -------------------------------------------
     Al     1      S                    0.917
     Al     1      Px                   0.677
     Al     1      Py                   0.664
     Al     1      Pz                   0.674
     Al     2      S                    0.961
     Al     2      Px                   0.694
     Al     2      Py                   0.722
     Al     2      Pz                   0.672
     Al     3      S                    0.966
     Al     3      Px                   0.735
     Al     3      Py                   0.746
     Al     3      Pz                   0.633
     Al     4      S                    0.969
     Al     4      Px                   0.735
     Al     4      Py                   0.722
     Al     4      Pz                   0.637
     Al     5      S                    0.943
     Al     5      Px                   0.632
     Al     5      Py                   0.661
     Al     5      Pz                   0.695
     Al     6      S                    0.974
     Al     6      Px                   0.691
     Al     6      Py                   0.716
     Al     6      Pz                   0.674
     Al     7      S                    0.978
     Al     7      Px                   0.665
     Al     7      Py                   0.716
     Al     7      Pz                   0.690
     Al     8      S                    0.954
     Al     8      Px                   0.721
     Al     8      Py                   0.709
     Al     8      Pz                   0.665
     Ti     1      S                    2.000
     Ti     1      Px                   2.003
     Ti     1      Py                   2.003
     Ti     1      Pz                   2.004
     Ti     1      S                    0.319
     Ti     1      Dzz                  0.483
     Ti     1      Dzy                  0.619
     Ti     1      Dzx                  0.630
     Ti     1      Dxx-yy               0.450
     Ti     1      Dxy                  0.447
     Ti     1      Px                   0.339
     Ti     1      Py                   0.351
     Ti     1      Pz                   0.308
     Ti     2      S                    2.004
     Ti     2      Px                   2.007
     Ti     2      Py                   2.007
     Ti     2      Pz                   2.006
     Ti     2      S                    0.277
     Ti     2      Dzz                  0.595
     Ti     2      Dzy                  0.511
     Ti     2      Dzx                  0.500
     Ti     2      Dxx-yy               0.594
     Ti     2      Dxy                  0.592
     Ti     2      Px                   0.296
     Ti     2      Py                   0.304
     Ti     2      Pz                   0.334
     Ti     3      S                    2.004
     Ti     3      Px                   2.006
     Ti     3      Py                   2.007
     Ti     3      Pz                   2.006
     Ti     3      S                    0.282
     Ti     3      Dzz                  0.600
     Ti     3      Dzy                  0.502
     Ti     3      Dzx                  0.487
     Ti     3      Dxx-yy               0.601
     Ti     3      Dxy                  0.595
     Ti     3      Px                   0.304
     Ti     3      Py                   0.315
     Ti     3      Pz                   0.326
     Ti     4      S                    2.004
     Ti     4      Px                   2.007
     Ti     4      Py                   2.007
     Ti     4      Pz                   2.006
     Ti     4      S                    0.270
     Ti     4      Dzz                  0.600
     Ti     4      Dzy                  0.506
     Ti     4      Dzx                  0.493
     Ti     4      Dxx-yy               0.594
     Ti     4      Dxy                  0.599
     Ti     4      Px                   0.294
     Ti     4      Py                   0.305
     Ti     4      Pz                   0.326
     Ti     5      S                    2.004
     Ti     5      Px                   2.006
     Ti     5      Py                   2.006
     Ti     5      Pz                   2.005
     Ti     5      S                    0.284
     Ti     5      Dzz                  0.599
     Ti     5      Dzy                  0.498
     Ti     5      Dzx                  0.488
     Ti     5      Dxx-yy               0.602
     Ti     5      Dxy                  0.596
     Ti     5      Px                   0.307
     Ti     5      Py                   0.316
     Ti     5      Pz                   0.326
     Ti     6      S                    2.000
     Ti     6      Px                   2.003
     Ti     6      Py                   2.003
     Ti     6      Pz                   2.004
     Ti     6      S                    0.318
     Ti     6      Dzz                  0.478
     Ti     6      Dzy                  0.624
     Ti     6      Dzx                  0.641
     Ti     6      Dxx-yy               0.447
     Ti     6      Dxy                  0.437
     Ti     6      Px                   0.333
     Ti     6      Py                   0.348
     Ti     6      Pz                   0.308
     Ti     7      S                    2.004
     Ti     7      Px                   2.007
     Ti     7      Py                   2.007
     Ti     7      Pz                   2.006
     Ti     7      S                    0.265
     Ti     7      Dzz                  0.580
     Ti     7      Dzy                  0.503
     Ti     7      Dzx                  0.501
     Ti     7      Dxx-yy               0.596
     Ti     7      Dxy                  0.604
     Ti     7      Px                   0.317
     Ti     7      Py                   0.318
     Ti     7      Pz                   0.342
     Ti     8      S                    2.004
     Ti     8      Px                   2.006
     Ti     8      Py                   2.006
     Ti     8      Pz                   2.006
     Ti     8      S                    0.271
     Ti     8      Dzz                  0.593
     Ti     8      Dzy                  0.504
     Ti     8      Dzx                  0.499
     Ti     8      Dxx-yy               0.589
     Ti     8      Dxy                  0.587
     Ti     8      Px                   0.325
     Ti     8      Py                   0.324
     Ti     8      Pz                   0.336
     Ti     9      S                    2.000
     Ti     9      Px                   2.003
     Ti     9      Py                   2.003
     Ti     9      Pz                   2.004
     Ti     9      S                    0.303
     Ti     9      Dzz                  0.494
     Ti     9      Dzy                  0.587
     Ti     9      Dzx                  0.606
     Ti     9      Dxx-yy               0.470
     Ti     9      Dxy                  0.455
     Ti     9      Px                   0.357
     Ti     9      Py                   0.347
     Ti     9      Pz                   0.338
     Ti    10      S                    2.004
     Ti    10      Px                   2.007
     Ti    10      Py                   2.006
     Ti    10      Pz                   2.006
     Ti    10      S                    0.269
     Ti    10      Dzz                  0.580
     Ti    10      Dzy                  0.517
     Ti    10      Dzx                  0.507
     Ti    10      Dxx-yy               0.607
     Ti    10      Dxy                  0.586
     Ti    10      Px                   0.283
     Ti    10      Py                   0.302
     Ti    10      Pz                   0.334
     Ti    11      S                    2.004
     Ti    11      Px                   2.006
     Ti    11      Py                   2.007
     Ti    11      Pz                   2.006
     Ti    11      S                    0.282
     Ti    11      Dzz                  0.605
     Ti    11      Dzy                  0.498
     Ti    11      Dzx                  0.480
     Ti    11      Dxx-yy               0.590
     Ti    11      Dxy                  0.609
     Ti    11      Px                   0.324
     Ti    11      Py                   0.304
     Ti    11      Pz                   0.323
     Ti    12      S                    2.000
     Ti    12      Px                   2.003
     Ti    12      Py                   2.003
     Ti    12      Pz                   2.004
     Ti    12      S                    0.300
     Ti    12      Dzz                  0.503
     Ti    12      Dzy                  0.610
     Ti    12      Dzx                  0.588
     Ti    12      Dxx-yy               0.444
     Ti    12      Dxy                  0.467
     Ti    12      Px                   0.348
     Ti    12      Py                   0.346
     Ti    12      Pz                   0.342
     Ti    13      S                    2.004
     Ti    13      Px                   2.006
     Ti    13      Py                   2.006
     Ti    13      Pz                   2.006
     Ti    13      S                    0.261
     Ti    13      Dzz                  0.573
     Ti    13      Dzy                  0.506
     Ti    13      Dzx                  0.505
     Ti    13      Dxx-yy               0.601
     Ti    13      Dxy                  0.601
     Ti    13      Px                   0.325
     Ti    13      Py                   0.315
     Ti    13      Pz                   0.341
     Ti    14      S                    2.004
     Ti    14      Px                   2.006
     Ti    14      Py                   2.007
     Ti    14      Pz                   2.006
     Ti    14      S                    0.274
     Ti    14      Dzz                  0.595
     Ti    14      Dzy                  0.507
     Ti    14      Dzx                  0.479
     Ti    14      Dxx-yy               0.589
     Ti    14      Dxy                  0.605
     Ti    14      Px                   0.334
     Ti    14      Py                   0.314
     Ti    14      Pz                   0.333
     Ti    15      S                    2.000
     Ti    15      Px                   2.003
     Ti    15      Py                   2.002
     Ti    15      Pz                   2.003
     Ti    15      S                    0.309
     Ti    15      Dzz                  0.491
     Ti    15      Dzy                  0.608
     Ti    15      Dzx                  0.605
     Ti    15      Dxx-yy               0.462
     Ti    15      Dxy                  0.443
     Ti    15      Px                   0.353
     Ti    15      Py                   0.346
     Ti    15      Pz                   0.340
     Ti    16      S                    2.003
     Ti    16      Px                   2.005
     Ti    16      Py                   2.006
     Ti    16      Pz                   2.005
     Ti    16      S                    0.275
     Ti    16      Dzz                  0.612
     Ti    16      Dzy                  0.499
     Ti    16      Dzx                  0.484
     Ti    16      Dxx-yy               0.586
     Ti    16      Dxy                  0.592
     Ti    16      Px                   0.314
     Ti    16      Py                   0.313
     Ti    16      Pz                   0.321
     Ti    17      S                    2.004
     Ti    17      Px                   2.006
     Ti    17      Py                   2.006
     Ti    17      Pz                   2.005
     Ti    17      S                    0.286
     Ti    17      Dzz                  0.612
     Ti    17      Dzy                  0.509
     Ti    17      Dzx                  0.482
     Ti    17      Dxx-yy               0.588
     Ti    17      Dxy                  0.585
     Ti    17      Px                   0.312
     Ti    17      Py                   0.313
     Ti    17      Pz                   0.326
     Ti    18      S                    2.000
     Ti    18      Px                   2.002
     Ti    18      Py                   2.003
     Ti    18      Pz                   2.004
     Ti    18      S                    0.307
     Ti    18      Dzz                  0.492
     Ti    18      Dzy                  0.610
     Ti    18      Dzx                  0.588
     Ti    18      Dxx-yy               0.458
     Ti    18      Dxy                  0.469
     Ti    18      Px                   0.357
     Ti    18      Py                   0.345
     Ti    18      Pz                   0.343
     Ti    19      S                    2.004
     Ti    19      Px                   2.006
     Ti    19      Py                   2.006
     Ti    19      Pz                   2.006
     Ti    19      S                    0.273
     Ti    19      Dzz                  0.583
     Ti    19      Dzy                  0.503
     Ti    19      Dzx                  0.504
     Ti    19      Dxx-yy               0.602
     Ti    19      Dxy                  0.601
     Ti    19      Px                   0.308
     Ti    19      Py                   0.292
     Ti    19      Pz                   0.336
     Ti    20      S                    2.004
     Ti    20      Px                   2.006
     Ti    20      Py                   2.006
     Ti    20      Pz                   2.006
     Ti    20      S                    0.274
     Ti    20      Dzz                  0.585
     Ti    20      Dzy                  0.502
     Ti    20      Dzx                  0.505
     Ti    20      Dxx-yy               0.596
     Ti    20      Dxy                  0.602
     Ti    20      Px                   0.303
     Ti    20      Py                   0.293
     Ti    20      Pz                   0.335
     Ti    21      S                    2.000
     Ti    21      Px                   2.002
     Ti    21      Py                   2.002
     Ti    21      Pz                   2.003
     Ti    21      S                    0.309
     Ti    21      Dzz                  0.508
     Ti    21      Dzy                  0.605
     Ti    21      Dzx                  0.589
     Ti    21      Dxx-yy               0.444
     Ti    21      Dxy                  0.462
     Ti    21      Px                   0.355
     Ti    21      Py                   0.345
     Ti    21      Pz                   0.335
     Ti    22      S                    2.004
     Ti    22      Px                   2.006
     Ti    22      Py                   2.006
     Ti    22      Pz                   2.006
     Ti    22      S                    0.270
     Ti    22      Dzz                  0.593
     Ti    22      Dzy                  0.503
     Ti    22      Dzx                  0.506
     Ti    22      Dxx-yy               0.591
     Ti    22      Dxy                  0.600
     Ti    22      Px                   0.312
     Ti    22      Py                   0.293
     Ti    22      Pz                   0.334
     Ti    23      S                    2.003
     Ti    23      Px                   2.006
     Ti    23      Py                   2.006
     Ti    23      Pz                   2.005
     Ti    23      S                    0.266
     Ti    23      Dzz                  0.570
     Ti    23      Dzy                  0.512
     Ti    23      Dzx                  0.499
     Ti    23      Dxx-yy               0.599
     Ti    23      Dxy                  0.594
     Ti    23      Px                   0.307
     Ti    23      Py                   0.317
     Ti    23      Pz                   0.346
     Ti    24      S                    2.000
     Ti    24      Px                   2.002
     Ti    24      Py                   2.003
     Ti    24      Pz                   2.003
     Ti    24      S                    0.310
     Ti    24      Dzz                  0.487
     Ti    24      Dzy                  0.622
     Ti    24      Dzx                  0.599
     Ti    24      Dxx-yy               0.439
     Ti    24      Dxy                  0.465
     Ti    24      Px                   0.351
     Ti    24      Py                   0.347
     Ti    24      Pz                   0.345
     Ti    25      S                    2.003
     Ti    25      Px                   2.006
     Ti    25      Py                   2.006
     Ti    25      Pz                   2.005
     Ti    25      S                    0.266
     Ti    25      Dzz                  0.589
     Ti    25      Dzy                  0.498
     Ti    25      Dzx                  0.493
     Ti    25      Dxx-yy               0.603
     Ti    25      Dxy                  0.588
     Ti    25      Px                   0.330
     Ti    25      Py                   0.327
     Ti    25      Pz                   0.336
     Ti    26      S                    2.003
     Ti    26      Px                   2.006
     Ti    26      Py                   2.005
     Ti    26      Pz                   2.004
     Ti    26      S                    0.268
     Ti    26      Dzz                  0.613
     Ti    26      Dzy                  0.487
     Ti    26      Dzx                  0.506
     Ti    26      Dxx-yy               0.571
     Ti    26      Dxy                  0.597
     Ti    26      Px                   0.289
     Ti    26      Py                   0.288
     Ti    26      Pz                   0.340
     Ti    27      S                    2.000
     Ti    27      Px                   2.002
     Ti    27      Py                   2.003
     Ti    27      Pz                   2.003
     Ti    27      S                    0.316
     Ti    27      Dzz                  0.492
     Ti    27      Dzy                  0.611
     Ti    27      Dzx                  0.589
     Ti    27      Dxx-yy               0.443
     Ti    27      Dxy                  0.489
     Ti    27      Px                   0.342
     Ti    27      Py                   0.323
     Ti    27      Pz                   0.331
     Ti    28      S                    2.002
     Ti    28      Px                   2.005
     Ti    28      Py                   2.005
     Ti    28      Pz                   2.005
     Ti    28      S                    0.286
     Ti    28      Dzz                  0.575
     Ti    28      Dzy                  0.517
     Ti    28      Dzx                  0.540
     Ti    28      Dxx-yy               0.509
     Ti    28      Dxy                  0.558
     Ti    28      Px                   0.311
     Ti    28      Py                   0.321
     Ti    28      Pz                   0.350
     Ti    29      S                    2.002
     Ti    29      Px                   2.006
     Ti    29      Py                   2.005
     Ti    29      Pz                   2.004
     Ti    29      S                    0.294
     Ti    29      Dzz                  0.567
     Ti    29      Dzy                  0.472
     Ti    29      Dzx                  0.486
     Ti    29      Dxx-yy               0.616
     Ti    29      Dxy                  0.600
     Ti    29      Px                   0.339
     Ti    29      Py                   0.333
     Ti    29      Pz                   0.269
     Ti    30      S                    1.999
     Ti    30      Px                   2.002
     Ti    30      Py                   2.002
     Ti    30      Pz                   2.003
     Ti    30      S                    0.306
     Ti    30      Dzz                  0.499
     Ti    30      Dzy                  0.605
     Ti    30      Dzx                  0.572
     Ti    30      Dxx-yy               0.460
     Ti    30      Dxy                  0.465
     Ti    30      Px                   0.369
     Ti    30      Py                   0.358
     Ti    30      Pz                   0.332
     Ti    31      S                    2.002
     Ti    31      Px                   2.005
     Ti    31      Py                   2.005
     Ti    31      Pz                   2.005
     Ti    31      S                    0.278
     Ti    31      Dzz                  0.557
     Ti    31      Dzy                  0.491
     Ti    31      Dzx                  0.558
     Ti    31      Dxx-yy               0.545
     Ti    31      Dxy                  0.548
     Ti    31      Px                   0.308
     Ti    31      Py                   0.302
     Ti    31      Pz                   0.349
     Ti    32      S                    2.000
     Ti    32      Px                   2.002
     Ti    32      Py                   2.003
     Ti    32      Pz                   2.003
     Ti    32      S                    0.317
     Ti    32      Dzz                  0.512
     Ti    32      Dzy                  0.605
     Ti    32      Dzx                  0.596
     Ti    32      Dxx-yy               0.439
     Ti    32      Dxy                  0.475
     Ti    32      Px                   0.336
     Ti    32      Py                   0.316
     Ti    32      Pz                   0.335
     Ti    33      S                    2.002
     Ti    33      Px                   2.005
     Ti    33      Py                   2.005
     Ti    33      Pz                   2.005
     Ti    33      S                    0.281
     Ti    33      Dzz                  0.593
     Ti    33      Dzy                  0.489
     Ti    33      Dzx                  0.526
     Ti    33      Dxx-yy               0.541
     Ti    33      Dxy                  0.579
     Ti    33      Px                   0.305
     Ti    33      Py                   0.277
     Ti    33      Pz                   0.355
     Ti    34      S                    2.001
     Ti    34      Px                   2.004
     Ti    34      Py                   2.004
     Ti    34      Pz                   2.004
     Ti    34      S                    0.303
     Ti    34      Dzz                  0.521
     Ti    34      Dzy                  0.597
     Ti    34      Dzx                  0.566
     Ti    34      Dxx-yy               0.486
     Ti    34      Dxy                  0.479
     Ti    34      Px                   0.308
     Ti    34      Py                   0.344
     Ti    34      Pz                   0.337
     Ti    35      S                    2.002
     Ti    35      Px                   2.005
     Ti    35      Py                   2.004
     Ti    35      Pz                   2.004
     Ti    35      S                    0.292
     Ti    35      Dzz                  0.605
     Ti    35      Dzy                  0.544
     Ti    35      Dzx                  0.509
     Ti    35      Dxx-yy               0.550
     Ti    35      Dxy                  0.526
     Ti    35      Px                   0.306
     Ti    35      Py                   0.263
     Ti    35      Pz                   0.342
     Ti    36      S                    2.003
     Ti    36      Px                   2.006
     Ti    36      Py                   2.006
     Ti    36      Pz                   2.005
     Ti    36      S                    0.336
     Ti    36      Dzz                  0.575
     Ti    36      Dzy                  0.487
     Ti    36      Dzx                  0.481
     Ti    36      Dxx-yy               0.604
     Ti    36      Dxy                  0.614
     Ti    36      Px                   0.380
     Ti    36      Py                   0.374
     Ti    36      Pz                   0.240
     Ti    37      S                    2.001
     Ti    37      Px                   2.004
     Ti    37      Py                   2.004
     Ti    37      Pz                   2.005
     Ti    37      S                    0.299
     Ti    37      Dzz                  0.509
     Ti    37      Dzy                  0.591
     Ti    37      Dzx                  0.562
     Ti    37      Dxx-yy               0.517
     Ti    37      Dxy                  0.454
     Ti    37      Px                   0.343
     Ti    37      Py                   0.336
     Ti    37      Pz                   0.327
     Ti    38      S                    2.002
     Ti    38      Px                   2.005
     Ti    38      Py                   2.005
     Ti    38      Pz                   2.005
     Ti    38      S                    0.279
     Ti    38      Dzz                  0.563
     Ti    38      Dzy                  0.557
     Ti    38      Dzx                  0.499
     Ti    38      Dxx-yy               0.590
     Ti    38      Dxy                  0.497
     Ti    38      Px                   0.325
     Ti    38      Py                   0.308
     Ti    38      Pz                   0.340
     Ti    39      S                    2.002
     Ti    39      Px                   2.005
     Ti    39      Py                   2.004
     Ti    39      Pz                   2.005
     Ti    39      S                    0.309
     Ti    39      Dzz                  0.539
     Ti    39      Dzy                  0.607
     Ti    39      Dzx                  0.556
     Ti    39      Dxx-yy               0.492
     Ti    39      Dxy                  0.466
     Ti    39      Px                   0.304
     Ti    39      Py                   0.343
     Ti    39      Pz                   0.333
     Ti    40      S                    2.002
     Ti    40      Px                   2.004
     Ti    40      Py                   2.005
     Ti    40      Pz                   2.005
     Ti    40      S                    0.294
     Ti    40      Dzz                  0.582
     Ti    40      Dzy                  0.519
     Ti    40      Dzx                  0.513
     Ti    40      Dxx-yy               0.574
     Ti    40      Dxy                  0.523
     Ti    40      Px                   0.333
     Ti    40      Py                   0.265
     Ti    40      Pz                   0.333
     Ti    41      S                    2.003
     Ti    41      Px                   2.005
     Ti    41      Py                   2.006
     Ti    41      Pz                   2.005
     Ti    41      S                    0.289
     Ti    41      Dzz                  0.589
     Ti    41      Dzy                  0.506
     Ti    41      Dzx                  0.512
     Ti    41      Dxx-yy               0.603
     Ti    41      Dxy                  0.573
     Ti    41      Px                   0.313
     Ti    41      Py                   0.299
     Ti    41      Pz                   0.301
     Ti    42      S                    2.000
     Ti    42      Px                   2.002
     Ti    42      Py                   2.002
     Ti    42      Pz                   2.004
     Ti    42      S                    0.327
     Ti    42      Dzz                  0.483
     Ti    42      Dzy                  0.608
     Ti    42      Dzx                  0.630
     Ti    42      Dxx-yy               0.462
     Ti    42      Dxy                  0.448
     Ti    42      Px                   0.328
     Ti    42      Py                   0.371
     Ti    42      Pz                   0.313
     Ti    43      S                    2.002
     Ti    43      Px                   2.005
     Ti    43      Py                   2.005
     Ti    43      Pz                   2.005
     Ti    43      S                    0.296
     Ti    43      Dzz                  0.584
     Ti    43      Dzy                  0.505
     Ti    43      Dzx                  0.476
     Ti    43      Dxx-yy               0.566
     Ti    43      Dxy                  0.610
     Ti    43      Px                   0.338
     Ti    43      Py                   0.330
     Ti    43      Pz                   0.279
     Ti    44      S                    2.003
     Ti    44      Px                   2.005
     Ti    44      Py                   2.006
     Ti    44      Pz                   2.005
     Ti    44      S                    0.300
     Ti    44      Dzz                  0.582
     Ti    44      Dzy                  0.502
     Ti    44      Dzx                  0.480
     Ti    44      Dxx-yy               0.582
     Ti    44      Dxy                  0.594
     Ti    44      Px                   0.358
     Ti    44      Py                   0.333
     Ti    44      Pz                   0.292
     Ti    45      S                    2.000
     Ti    45      Px                   2.002
     Ti    45      Py                   2.002
     Ti    45      Pz                   2.004
     Ti    45      S                    0.330
     Ti    45      Dzz                  0.476
     Ti    45      Dzy                  0.624
     Ti    45      Dzx                  0.616
     Ti    45      Dxx-yy               0.462
     Ti    45      Dxy                  0.448
     Ti    45      Px                   0.329
     Ti    45      Py                   0.356
     Ti    45      Pz                   0.316
     Ti    46      S                    2.003
     Ti    46      Px                   2.006
     Ti    46      Py                   2.006
     Ti    46      Pz                   2.005
     Ti    46      S                    0.284
     Ti    46      Dzz                  0.628
     Ti    46      Dzy                  0.507
     Ti    46      Dzx                  0.474
     Ti    46      Dxx-yy               0.603
     Ti    46      Dxy                  0.581
     Ti    46      Px                   0.319
     Ti    46      Py                   0.293
     Ti    46      Pz                   0.296
     Ti    47      S                    2.000
     Ti    47      Px                   2.003
     Ti    47      Py                   2.003
     Ti    47      Pz                   2.004
     Ti    47      S                    0.310
     Ti    47      Dzz                  0.515
     Ti    47      Dzy                  0.581
     Ti    47      Dzx                  0.597
     Ti    47      Dxx-yy               0.474
     Ti    47      Dxy                  0.482
     Ti    47      Px                   0.323
     Ti    47      Py                   0.284
     Ti    47      Pz                   0.317
     Ti    48      S                    2.005
     Ti    48      Px                   2.007
     Ti    48      Py                   2.007
     Ti    48      Pz                   2.006
     Ti    48      S                    0.261
     Ti    48      Dzz                  0.575
     Ti    48      Dzy                  0.532
     Ti    48      Dzx                  0.496
     Ti    48      Dxx-yy               0.595
     Ti    48      Dxy                  0.584
     Ti    48      Px                   0.318
     Ti    48      Py                   0.304
     Ti    48      Pz                   0.351
     Ti    49      S                    2.004
     Ti    49      Px                   2.007
     Ti    49      Py                   2.006
     Ti    49      Pz                   2.006
     Ti    49      S                    0.257
     Ti    49      Dzz                  0.580
     Ti    49      Dzy                  0.505
     Ti    49      Dzx                  0.507
     Ti    49      Dxx-yy               0.592
     Ti    49      Dxy                  0.610
     Ti    49      Px                   0.312
     Ti    49      Py                   0.290
     Ti    49      Pz                   0.335
     Ti    50      S                    1.999
     Ti    50      Px                   2.002
     Ti    50      Py                   2.002
     Ti    50      Pz                   2.003
     Ti    50      S                    0.308
     Ti    50      Dzz                  0.502
     Ti    50      Dzy                  0.583
     Ti    50      Dzx                  0.604
     Ti    50      Dxx-yy               0.467
     Ti    50      Dxy                  0.450
     Ti    50      Px                   0.328
     Ti    50      Py                   0.361
     Ti    50      Pz                   0.333
     Ti    51      S                    2.004
     Ti    51      Px                   2.006
     Ti    51      Py                   2.007
     Ti    51      Pz                   2.005
     Ti    51      S                    0.276
     Ti    51      Dzz                  0.585
     Ti    51      Dzy                  0.521
     Ti    51      Dzx                  0.459
     Ti    51      Dxx-yy               0.575
     Ti    51      Dxy                  0.621
     Ti    51      Px                   0.319
     Ti    51      Py                   0.298
     Ti    51      Pz                   0.334
     Ti    52      S                    2.004
     Ti    52      Px                   2.007
     Ti    52      Py                   2.006
     Ti    52      Pz                   2.006
     Ti    52      S                    0.267
     Ti    52      Dzz                  0.584
     Ti    52      Dzy                  0.502
     Ti    52      Dzx                  0.504
     Ti    52      Dxx-yy               0.596
     Ti    52      Dxy                  0.602
     Ti    52      Px                   0.312
     Ti    52      Py                   0.292
     Ti    52      Pz                   0.341
     Ti    53      S                    2.000
     Ti    53      Px                   2.003
     Ti    53      Py                   2.003
     Ti    53      Pz                   2.004
     Ti    53      S                    0.314
     Ti    53      Dzz                  0.509
     Ti    53      Dzy                  0.592
     Ti    53      Dzx                  0.607
     Ti    53      Dxx-yy               0.466
     Ti    53      Dxy                  0.470
     Ti    53      Px                   0.346
     Ti    53      Py                   0.285
     Ti    53      Pz                   0.333
     Ti    54      S                    2.004
     Ti    54      Px                   2.007
     Ti    54      Py                   2.006
     Ti    54      Pz                   2.005
     Ti    54      S                    0.264
     Ti    54      Dzz                  0.584
     Ti    54      Dzy                  0.513
     Ti    54      Dzx                  0.474
     Ti    54      Dxx-yy               0.605
     Ti    54      Dxy                  0.601
     Ti    54      Px                   0.304
     Ti    54      Py                   0.320
     Ti    54      Pz                   0.345
     Ti    55      S                    2.004
     Ti    55      Px                   2.007
     Ti    55      Py                   2.006
     Ti    55      Pz                   2.005
     Ti    55      S                    0.245
     Ti    55      Dzz                  0.595
     Ti    55      Dzy                  0.501
     Ti    55      Dzx                  0.486
     Ti    55      Dxx-yy               0.594
     Ti    55      Dxy                  0.612
     Ti    55      Px                   0.302
     Ti    55      Py                   0.309
     Ti    55      Pz                   0.352
     Ti    56      S                    2.001
     Ti    56      Px                   2.004
     Ti    56      Py                   2.003
     Ti    56      Pz                   2.003
     Ti    56      S                    0.282
     Ti    56      Dzz                  0.558
     Ti    56      Dzy                  0.522
     Ti    56      Dzx                  0.513
     Ti    56      Dxx-yy               0.529
     Ti    56      Dxy                  0.569
     Ti    56      Px                   0.309
     Ti    56      Py                   0.304
     Ti    56      Pz                   0.345
     Ti    57      S                    2.004
     Ti    57      Px                   2.006
     Ti    57      Py                   2.007
     Ti    57      Pz                   2.006
     Ti    57      S                    0.283
     Ti    57      Dzz                  0.574
     Ti    57      Dzy                  0.517
     Ti    57      Dzx                  0.498
     Ti    57      Dxx-yy               0.591
     Ti    57      Dxy                  0.601
     Ti    57      Px                   0.324
     Ti    57      Py                   0.312
     Ti    57      Pz                   0.342
     Ti    58      S                    2.001
     Ti    58      Px                   2.004
     Ti    58      Py                   2.004
     Ti    58      Pz                   2.004
     Ti    58      S                    0.294
     Ti    58      Dzz                  0.522
     Ti    58      Dzy                  0.529
     Ti    58      Dzx                  0.584
     Ti    58      Dxx-yy               0.442
     Ti    58      Dxy                  0.546
     Ti    58      Px                   0.365
     Ti    58      Py                   0.319
     Ti    58      Pz                   0.338
     Ti    59      S                    2.002
     Ti    59      Px                   2.005
     Ti    59      Py                   2.005
     Ti    59      Pz                   2.004
     Ti    59      S                    0.276
     Ti    59      Dzz                  0.577
     Ti    59      Dzy                  0.503
     Ti    59      Dzx                  0.532
     Ti    59      Dxx-yy               0.535
     Ti    59      Dxy                  0.565
     Ti    59      Px                   0.302
     Ti    59      Py                   0.312
     Ti    59      Pz                   0.343
     Ti    60      S                    2.004
     Ti    60      Px                   2.006
     Ti    60      Py                   2.006
     Ti    60      Pz                   2.005
     Ti    60      S                    0.281
     Ti    60      Dzz                  0.596
     Ti    60      Dzy                  0.486
     Ti    60      Dzx                  0.495
     Ti    60      Dxx-yy               0.593
     Ti    60      Dxy                  0.597
     Ti    60      Px                   0.320
     Ti    60      Py                   0.320
     Ti    60      Pz                   0.331
     Ti    61      S                    2.002
     Ti    61      Px                   2.004
     Ti    61      Py                   2.005
     Ti    61      Pz                   2.004
     Ti    61      S                    0.295
     Ti    61      Dzz                  0.548
     Ti    61      Dzy                  0.510
     Ti    61      Dzx                  0.594
     Ti    61      Dxx-yy               0.472
     Ti    61      Dxy                  0.538
     Ti    61      Px                   0.338
     Ti    61      Py                   0.281
     Ti    61      Pz                   0.344
     Ti    62      S                    2.003
     Ti    62      Px                   2.006
     Ti    62      Py                   2.005
     Ti    62      Pz                   2.005
     Ti    62      S                    0.283
     Ti    62      Dzz                  0.608
     Ti    62      Dzy                  0.491
     Ti    62      Dzx                  0.491
     Ti    62      Dxx-yy               0.616
     Ti    62      Dxy                  0.535
     Ti    62      Px                   0.318
     Ti    62      Py                   0.335
     Ti    62      Pz                   0.324
     Ti    63      S                    2.001
     Ti    63      Px                   2.004
     Ti    63      Py                   2.004
     Ti    63      Pz                   2.004
     Ti    63      S                    0.306
     Ti    63      Dzz                  0.510
     Ti    63      Dzy                  0.595
     Ti    63      Dzx                  0.557
     Ti    63      Dxx-yy               0.505
     Ti    63      Dxy                  0.497
     Ti    63      Px                   0.295
     Ti    63      Py                   0.325
     Ti    63      Pz                   0.338
[...]
              Al 3 -- Ti 61                  0.31        2.69875
             Ti 43 -- Ti 44                  0.31        2.69923
              Al 7 -- Ti 26                  0.38        2.70092
             Ti 8  -- Ti 33                  0.26        2.70105
             Ti 11 -- Ti 35                  0.26        2.70108
             Ti 51 -- Ti 60                  0.28        2.70402
             Ti 14 -- Ti 38                  0.24        2.70448
             Ti 4  -- Ti 14                  0.30        2.70633
              Al 2 -- V 1                    0.32        2.70989
              Al 4 -- V 2                    0.31        2.71256
              Al 3 -- Al 4                   0.24        2.71910
             Ti 17 -- Ti 40                  0.24        2.72216
             Ti 59 -- Ti 60                  0.24        2.72368
             Ti 28 -- Ti 29                  0.21        2.72605
             Ti 59 -- Ti 68                  0.26        2.72642
              Al 6 -- Ti 35                  0.33        2.72942
             Ti 44 -- Ti 67                  0.30        2.73207
             Ti 38 -- Ti 44                  0.23        2.73316
             Ti 3  -- Ti 28                  0.25        2.73365
             Ti 40 -- Ti 46                  0.24        2.73609
             Ti 29 -- V 2                    0.17        2.74753
             Ti 5  -- Ti 31                  0.27        2.75441
              Al 3 -- Ti 39                  0.30        2.75465
             Ti 58 -- V 2                    0.35        2.75734
             Ti 56 -- Ti 65                  0.25        2.75942
              Al 7 -- Ti 41                  0.32        2.76315
              Al 6 -- Ti 44                  0.29        2.76357
              Al 6 -- Ti 46                  0.31        2.76651
              Al 3 -- Ti 69                  0.27        2.76730
             Ti 16 -- Ti 62                  0.28        2.77017
             Ti 36 -- Ti 58                  0.22        2.77119
             Ti 28 -- Ti 31                  0.21        2.77335
              Al 8 -- Ti 67                  0.27        2.77564
              Al 4 -- Ti 63                  0.31        2.77574
             Ti 57 -- Ti 62                  0.10        2.77658
              Al 3 -- Ti 38                  0.27        2.78008
             Ti 35 -- Ti 36                  0.18        2.78042
             Ti 20 -- Ti 23                  0.12        2.78183
             Ti 48 -- Ti 54                  0.13        2.78420
             Ti 49 -- Ti 52                  0.03        2.78556
              Al 8 -- Ti 64                  0.31        2.79043
             Ti 34 -- Ti 37                  0.33        2.79247
             Ti 65 -- Ti 68                  0.10        2.79288
              Al 3 -- V 3                    0.25        2.79476
              Al 4 -- V 3                    0.28        2.79803
             Ti 9  -- Ti 15                  0.42        2.80181
             Ti 63 -- Ti 66                  0.29        2.80222
              Al 4 -- Ti 33                  0.27        2.80283
              Al 2 -- Ti 61                  0.25        2.80285
             Ti 37 -- Ti 39                  0.32        2.80319
             Ti 1  -- Ti 6                   0.40        2.80345
             Ti 69 -- V 3                    0.16        2.80698
             Ti 42 -- Ti 45                  0.38        2.80760
             Ti 36 -- Ti 66                  0.21        2.80854
              Al 7 -- Ti 43                  0.26        2.80873
             Ti 38 -- Ti 40                  0.16        2.80906
             Ti 14 -- Ti 17                  0.12        2.80935
             Ti 19 -- Ti 22                  0.08        2.81030
             Ti 47 -- Ti 53                  0.32        2.81223
             Ti 56 -- V 3                    0.22        2.81240
             Ti 18 -- Ti 24                  0.40        2.81447
             Ti 30 -- Ti 32                  0.34        2.81494
             Ti 29 -- V 1                    0.17        2.81519
              Al 4 -- Ti 34                  0.32        2.81594
             Ti 61 -- V 2                    0.34        2.81669
             Ti 2  -- Ti 7                   0.11        2.81675
             Ti 3  -- Ti 8                   0.09        2.81719
             Ti 10 -- Ti 13                  0.09        2.81845
             Ti 66 -- Ti 69                  0.31        2.81845
             Ti 11 -- Ti 17                  0.08        2.81853
             Ti 27 -- Ti 30                  0.39        2.81894
             Ti 48 -- Ti 51                  0.08        2.81906
             Ti 18 -- Ti 21                  0.36        2.82007
             Ti 58 -- V 1                    0.17        2.82010
             Ti 4  -- Ti 7                   0.11        2.82223
             Ti 13 -- Ti 16                  0.09        2.82276
             Ti 22 -- Ti 25                  0.09        2.82300
              Al 5 -- Ti 45                  0.44        2.82374
             Ti 3  -- Ti 5                   0.07        2.82379
             Ti 5  -- Ti 8                   0.08        2.82420
             Ti 50 -- Ti 53                  0.39        2.82425
             Ti 10 -- Ti 16                  0.08        2.82542
             Ti 2  -- Ti 4                   0.07        2.82626
             Ti 35 -- Ti 38                  0.24        2.82764
             Ti 35 -- Ti 40                  0.18        2.82850
             Ti 12 -- Ti 15                  0.38        2.82857
             Ti 47 -- Ti 50                  0.36        2.82981
              Al 1 -- Ti 1                   0.35        2.83006
              Al 1 -- Ti 6                   0.35        2.83137
             Ti 27 -- Ti 32                  0.35        2.83174
             Ti 21 -- Ti 24                  0.37        2.83184
             Ti 19 -- Ti 25                  0.08        2.83209
             Ti 28 -- Ti 33                  0.20        2.83235
              Al 5 -- Ti 42                  0.37        2.83444
             Ti 65 -- Ti 70                  0.14        2.83463
             Ti 9  -- Ti 12                  0.36        2.83532
              Al 4 -- Ti 56                  0.20        2.83593
             Ti 11 -- Ti 14                  0.11        2.83777
             Ti 52 -- Ti 55                  0.06        2.83806
             Ti 68 -- Ti 70                  0.11        2.83883
             Ti 23 -- Ti 26                  0.14        2.83943
             Ti 54 -- V 2                    0.20        2.83970
             Ti 36 -- Ti 37                  0.21        2.84005
             Ti 49 -- Ti 55                  0.07        2.84202
             Ti 28 -- Ti 36                  0.15        2.84261
             Ti 36 -- Ti 59                  0.21        2.84518
             Ti 20 -- Ti 26                  0.11        2.84532
             Ti 63 -- Ti 69                  0.29        2.84728
             Ti 57 -- Ti 60                  0.13        2.84741
              Al 3 -- Ti 31                  0.23        2.84957
              Al 3 -- Ti 40                  0.26        2.85188
              Al 4 -- Ti 36                  0.22        2.85277
             Ti 48 -- Ti 58                  0.11        2.85500
             Ti 30 -- V 1                    0.21        2.85568
             Ti 64 -- Ti 66                  0.16        2.85869
             Ti 31 -- Ti 33                  0.19        2.85971
             Ti 60 -- Ti 62                  0.11        2.86008
             Ti 51 -- Ti 54                  0.14        2.86854
             Ti 34 -- Ti 39                  0.35        2.87029
             Ti 65 -- Ti 66                  0.15        2.87057
              Al 4 -- Ti 40                  0.25        2.87337
             Ti 11 -- Ti 37                  0.16        2.87525
             Ti 61 -- Ti 62                  0.03        2.87852
             Ti 51 -- Ti 58                  0.12        2.88108
             Ti 42 -- Ti 44                  0.21        2.88165
             Ti 2  -- Ti 37                  0.16        2.88264
             Ti 21 -- Ti 65                  0.19        2.88629
              Al 3 -- Ti 59                  0.19        2.88650
             Ti 67 -- Ti 69                  0.18        2.88774
              Al 7 -- Ti 27                  0.24        2.88969
             Ti 61 -- V 3                    0.16        2.88986
             Ti 48 -- V 2                    0.16        2.88990
             Ti 32 -- Ti 43                  0.13        2.89088
              Al 6 -- Ti 66                  0.22        2.89418
              Al 7 -- Ti 47                  0.23        2.89535
             Ti 14 -- Ti 39                  0.14        2.89625
              Al 3 -- Ti 36                  0.19        2.89873
             Ti 4  -- Ti 39                  0.13        2.89932
             Ti 64 -- Ti 67                  0.10        2.89950
             Ti 44 -- Ti 66                  0.16        2.90075
             Ti 36 -- Ti 38                  0.18        2.90107
             Ti 24 -- Ti 68                  0.14        2.90124
             Ti 63 -- Ti 70                  0.09        2.90171
             Ti 53 -- Ti 67                  0.17        2.90214
             Ti 41 -- Ti 43                  0.08        2.90219
             Ti 58 -- Ti 61                  0.30        2.90351
              Al 8 -- Ti 63                  0.23        2.90388
             Ti 62 -- V 2                    0.08        2.90574
              Al 3 -- Ti 33                  0.22        2.91025
             Ti 28 -- V 2                    0.16        2.91491
             Ti 18 -- Ti 70                  0.12        2.91911
              Al 6 -- Ti 63                  0.22        2.92172
             Ti 6  -- Ti 67                  0.13        2.92178
             Ti 11 -- Ti 34                  0.15        2.92188
             Ti 44 -- Ti 50                  0.16        2.92327
             Ti 51 -- Ti 61                  0.13        2.92330
             Ti 31 -- Ti 36                  0.15        2.92350
             Ti 33 -- V 2                    0.15        2.92470
              Al 2 -- Ti 32                  0.24        2.92682
             Ti 18 -- Ti 62                  0.14        2.92699
              Al 4 -- Ti 28                  0.18        2.92729
             Ti 4  -- Ti 37                  0.14        2.92957
             Ti 7  -- Ti 39                  0.14        2.93013
             Ti 17 -- Ti 34                  0.15        2.93039
             Ti 27 -- Ti 29                  0.16        2.93166
             Ti 4  -- Ti 12                  0.15        2.93231
             Ti 1  -- Ti 64                  0.15        2.93266
              Al 2 -- V 2                    0.20        2.93289
             Ti 36 -- Ti 56                  0.17        2.93458
             Ti 3  -- Ti 30                  0.17        2.93467
             Ti 66 -- Ti 67                  0.13        2.93468
              Al 8 -- Ti 53                  0.19        2.93490
             Ti 44 -- Ti 46                  0.12        2.93584
              Al 2 -- Ti 53                  0.24        2.93594
             Ti 5  -- Ti 37                  0.13        2.93606
             Ti 43 -- Ti 53                  0.12        2.93623
             Ti 6  -- Ti 25                  0.12        2.93684
             Ti 46 -- Ti 53                  0.14        2.93818
             Ti 12 -- Ti 57                  0.16        2.93999
             Ti 34 -- Ti 35                  0.12        2.94047
             Ti 29 -- Ti 47                  0.15        2.94111
             Ti 24 -- Ti 70                  0.13        2.94276
             Ti 15 -- Ti 60                  0.15        2.94404
             Ti 3  -- Ti 37                  0.14        2.94453
             Ti 66 -- Ti 68                  0.18        2.94519
             Ti 8  -- Ti 27                  0.12        2.94556
             Ti 46 -- Ti 63                  0.15        2.94568
             Ti 9  -- Ti 57                  0.11        2.94569
              Al 6 -- Ti 47                  0.23        2.94570
             Ti 8  -- Ti 39                  0.13        2.94632
              Al 8 -- Ti 69                  0.22        2.94646
             Ti 21 -- Ti 68                  0.16        2.94668
             Ti 28 -- Ti 34                  0.13        2.94676
             Ti 5  -- Ti 39                  0.12        2.94676
              Al 2 -- Ti 29                  0.24        2.94719
             Ti 7  -- Ti 34                  0.13        2.94755
             Ti 56 -- Ti 63                  0.14        2.94793
             Ti 9  -- Ti 54                  0.15        2.94804
             Ti 2  -- Ti 34                  0.11        2.94835
             Ti 68 -- Ti 69                  0.08        2.94901
             Ti 47 -- Ti 64                  0.11        2.94936
             Ti 45 -- Ti 46                  0.17        2.94998
             Ti 31 -- Ti 37                  0.14        2.95045
              Al 1 -- Ti 64                  0.18        2.95070
             Ti 5  -- Ti 32                  0.16        2.95170
              Al 8 -- Ti 1                   0.20        2.95253
             Ti 33 -- Ti 61                  0.11        2.95323
             Ti 18 -- Ti 20                  0.14        2.95392
             Ti 16 -- Ti 18                  0.15        2.95500
             Ti 57 -- Ti 58                  0.13        2.95669
             Ti 12 -- Ti 52                  0.11        2.95743
             Ti 41 -- Ti 42                  0.15        2.95854
             Ti 3  -- Ti 34                  0.12        2.95882
             Ti 59 -- Ti 66                  0.14        2.96058
              Al 8 -- Ti 47                  0.19        2.96061
             Ti 60 -- Ti 61                  0.14        2.96115
             Ti 9  -- Ti 17                  0.14        2.96207
             Ti 69 -- Ti 70                  0.06        2.96250
             Ti 44 -- Ti 69                  0.11        2.96252
             Ti 17 -- Ti 39                  0.10        2.96357
             Ti 59 -- Ti 61                  0.13        2.96399
             Ti 24 -- Ti 62                  0.13        2.96456
             Ti 28 -- Ti 58                  0.07        2.96571
             Ti 56 -- Ti 59                  0.23        2.96597
              Al 5 -- Al 6                   0.20        2.96623
             Ti 1  -- Ti 19                  0.13        2.96853
             Ti 16 -- Ti 24                  0.15        2.96859
             Ti 27 -- Ti 41                  0.18        2.96874
             Ti 2  -- Ti 9                   0.11        2.96879
             Ti 35 -- Ti 63                  0.14        2.96899
             Ti 46 -- Ti 69                  0.13        2.96924
              Al 1 -- Ti 22                  0.17        2.97081
              Al 5 -- Ti 46                  0.20        2.97152
             Ti 9  -- Ti 16                  0.13        2.97170
             Ti 14 -- Ti 37                  0.13        2.97277
             Ti 24 -- Ti 60                  0.13        2.97383
             Ti 37 -- Ti 38                  0.10        2.97383
             Ti 56 -- V 2                    0.16        2.97438
             Ti 9  -- Ti 10                  0.12        2.97530
             Ti 63 -- Ti 64                  0.12        2.97533
              Al 5 -- Ti 17                  0.16        2.97577
             Ti 15 -- Ti 54                  0.13        2.97606
              Al 8 -- Ti 6                   0.19        2.97702
             Ti 46 -- Ti 47                  0.13        2.97727
             Ti 30 -- Ti 41                  0.12        2.97774
             Ti 15 -- Ti 16                  0.13        2.97873
             Ti 63 -- Ti 65                  0.07        2.97881
             Ti 10 -- Ti 42                  0.10        2.97937
             Ti 1  -- Ti 7                   0.10        2.97962
              Al 7 -- Ti 32                  0.18        2.98210
             Ti 8  -- Ti 34                  0.11        2.98273
             Ti 8  -- Ti 32                  0.11        2.98372
             Ti 22 -- Ti 32                  0.12        2.98395
              Al 5 -- Ti 11                  0.18        2.98427
             Ti 1  -- Ti 25                  0.14        2.98433
             Ti 14 -- Ti 42                  0.16        2.98509
             Ti 12 -- Ti 14                  0.11        2.98615
             Ti 5  -- Ti 30                  0.16        2.98643
             Ti 21 -- Ti 57                  0.15        2.98671
             Ti 51 -- Ti 53                  0.12        2.98693
              Al 1 -- Ti 5                   0.17        2.98710
             Ti 38 -- Ti 39                  0.12        2.98718
             Ti 39 -- Ti 40                  0.13        2.98728
             Ti 12 -- Ti 48                  0.11        2.98728
              Al 1 -- Ti 2                   0.14        2.98819
             Ti 15 -- Ti 55                  0.15        2.98826
             Ti 44 -- Ti 45                  0.14        2.98867
             Ti 26 -- Ti 27                  0.16        2.98922
             Ti 6  -- Ti 7                   0.10        2.98959
             Ti 31 -- Ti 61                  0.08        2.98977
             Ti 23 -- Ti 45                  0.12        2.99052
             Ti 15 -- Ti 17                  0.11        2.99081
             Ti 58 -- Ti 59                  0.15        2.99108
             Ti 9  -- Ti 11                  0.14        2.99217
             Ti 40 -- Ti 69                  0.13        2.99229
             Ti 21 -- Ti 60                  0.15        2.99259
             Ti 2  -- Ti 12                  0.13        2.99292
             Ti 1  -- Ti 55                  0.13        2.99351
              Al 6 -- Ti 50                  0.15        2.99385
             Ti 52 -- Ti 53                  0.12        2.99396
             Ti 31 -- Ti 58                  0.07        2.99408
              Al 1 -- Ti 49                  0.17        2.99421
             Ti 43 -- Ti 45                  0.20        2.99442
              Al 7 -- Ti 53                  0.14        2.99460
             Ti 43 -- Ti 50                  0.10        2.99469
             Ti 63 -- V 3                    0.17        2.99480
             Ti 14 -- Ti 45                  0.14        2.99483
             Ti 10 -- Ti 18                  0.13        2.99501
             Ti 58 -- Ti 60                  0.15        2.99598
             Ti 41 -- Ti 50                  0.13        2.99606
              Al 5 -- Ti 10                  0.14        2.99723
             Ti 50 -- Ti 67                  0.10        2.99811
             Ti 12 -- Ti 13                  0.11        2.99816
             Ti 11 -- Ti 42                  0.14        2.99888
             Ti 53 -- Ti 55                  0.06        2.99922
              Al 1 -- Ti 19                  0.15        2.99942
             Ti 3  -- Ti 27                  0.14        2.99944
             Ti 18 -- Ti 56                  0.14        2.99946
              Al 1 -- Ti 4                   0.15        2.99964
======================================================================

 
 A BibTeX formatted list of references used in this run has been written to 
 sqs_hex_sc3x3x3_Ti70Al8V3_frame0_08.bib
 
Initialisation time =     23.49 s
Calculation time    =   6458.14 s
Finalisation time   =      0.47 s
Total time          =   6482.09 s
Peak Memory Use     = 2628120 kB
 
Overall parallel efficiency rating: Mediocre (58%)
 
Data was distributed by:-
G-vector (16-way); efficiency rating: Mediocre (59%)
k-point (15-way); efficiency rating: Excellent (96%)
