 +-------------------------------------------------+
 |                                                 |
 |      CCC   AA    SSS  TTTTT  EEEEE  PPPP        |
 |     C     A  A  S       T    E      P   P       |
 |     C     AAAA   SS     T    EEE    PPPP        |
 |     C     A  A     S    T    E      P           |
 |      CCC  A  A  SSS     T    EEEEE  P           |
 |                                                 |
 +-------------------------------------------------+
 |                                                 |
 | Welcome to Academic Release CASTEP version 24.1 |
 | Ab Initio Total Energy Program                  |
 |                                                 |
 | Authors:                                        |
 | M. Segall, M. Probert, C. Pickard, P. Hasnip,   |
 | S. Clark, K. Refson, J. R. Yates,               |
 | A. Bartok-Partay, M. Payne                      |
 |                                                 |
 | Contributors:                                   |
 | P. Lindan, P. Haynes, J. White, V. Milman,      |
 | N. Govind, M. Gibson, P. Tulip, V. Cocula,      |
 | B. Montanari, D. Quigley, M. Glover,            |
 | L. Bernasconi, A. Perlov, M. Plummer,           |
 | E. McNellis, J. Meyer, J. Gale, D. Jochym       |
 | J. Aarons, B. Walker, R. Gillen, D. Jones       |
 | T. Green, I. J. Bush, C. J. Armstrong,          |
 | E. J. Higgins, E. L. Brown, M. S. McFly,        |
 | J. Wilkins, B-C. Shih, P. J. P. Byrne,          |
 | R. J. Maurer, J. C. Womack, J. Dziedzic,        |
 | L. LeBlanc, T. K. Stenczel, J. Kermode,         |
 | S. Sturniolo, B. Shi, B. Durham, M. Evans,      |
 | M. J. Smith, A. Tamerus, Z. Hawkhead,           |
 | V. Ravindran, T. Hollins, S. A. Joyce,          |
 | R. T. Strong, A. M. Reilly                      |
 |                                                 |
 | Copyright (c) 2000 - 2023                       |
 |                                                 |
 |     Distributed under license from Cambridge    |
 |     Enterprise for academic use only.           |
 |                                                 |
 | Please cite                                     |
 |                                                 |
 |     "First principles methods using CASTEP"     |
 |                                                 |
 |         Zeitschrift fuer Kristallographie       |
 |           220(5-6) pp. 567-570 (2005)           |
 |                                                 |
 | S. J. Clark, M. D. Segall, C. J. Pickard,       |
 | P. J. Hasnip, M. J. Probert, K. Refson,         |
 | M. C. Payne                                     |
 |                                                 |
 |       in all publications arising from          |
 |              your use of CASTEP                 |
 |                                                 |
 +-------------------------------------------------+
 |                                                 |
 |              http://www.castep.org              |
 |                                                 |
 +-------------------------------------------------+



 Compiled for linux_x86_64_gfortran10 on Tue, 02 May 2023 15:31:46 +0100
 from code version db08e394c+  default  Mon May 1 16:40:39 2023 +0100
 Compiler: GNU Fortran 10.2.0; Optimisation: fast
 Comms   : Open MPI v4.0.5
 MATHLIBS: openblas (LAPACK version 3.9.0)
 FFT Lib : fftw3 version fftw-3.3.8-sse2-avx-avx2-avx2_128
 Fundamental constants values: CODATA 2018

 Run started: Wed, 07 Feb 2024 16:03:08 +0000

 Atomic calculation performed for Al: 1s2 2s2 2p6 3s2 3p1

 Converged in 54 iterations to an ae energy of -6603.783 eV

   ============================================================                
   | Pseudopotential Report - Date of generation  7-02-2024   |                
   ------------------------------------------------------------                
   | Element: Al Ionic charge:  3.00 Level of theory: PBE     |                
   | Atomic Solver: Koelling-Harmon                           |                
   |                                                          |                
   |               Reference Electronic Structure             |                
   |         Orbital         Occupation         Energy        |                
   |            3s              2.000           -0.285        |                
   |            3p              1.000           -0.100        |                
   |                                                          |                
   |                 Pseudopotential Definition               |                
   |        Beta     l      e      Rc     scheme   norm       |                
   |          1      0   -0.285   2.192     qc      0         |                
   |          2      0    0.250   2.192     qc      0         |                
   |          3      1   -0.100   2.192     qc      0         |                
   |          4      1    0.250   2.192     qc      0         |                
   |          5      2    0.000   2.000     qc      0         |                
   |          6      2    0.250   2.000     qc      0         |                
   |         loc     3    0.000   2.192     pn      0         |                
   |                                                          |                
   | Augmentation charge Rinner = 1.398                       |                
   | Partial core correction Rc = 1.398                       |                
   ------------------------------------------------------------                
   | "3|2.2|2.2|1.4|4|5|5|30:31:32U2U2"                       |                
   ------------------------------------------------------------                
   |      Author: Chris J. Pickard, Cambridge University      |                
   ============================================================                

 Atomic calculation performed for Ti: 1s2 2s2 2p6 3s2 3p6 3d2 4s2

 Converged in 79 iterations to an ae energy of -23226.658 eV

   ============================================================                
   | Pseudopotential Report - Date of generation  7-02-2024   |                
   ------------------------------------------------------------                
   | Element: Ti Ionic charge: 12.00 Level of theory: PBE     |                
   | Atomic Solver: Koelling-Harmon                           |                
   |                                                          |                
   |               Reference Electronic Structure             |                
   |         Orbital         Occupation         Energy        |                
   |            3s              2.000           -2.302        |                
   |            3p              6.000           -1.428        |                
   |            4s              2.000           -0.164        |                
   |            3d              2.000           -0.157        |                
   |                                                          |                
   |                 Pseudopotential Definition               |                
   |        Beta     l      e      Rc     scheme   norm       |                
   |          1      0   -2.302   1.793     qc      0         |                
   |          2      0   -0.164   1.793     qc      0         |                
   |          3      0    0.250   1.793     qc      0         |                
   |          4      1   -1.428   1.793     qc      0         |                
   |          5      1    0.250   1.793     qc      0         |                
   |          6      2   -0.157   1.793     qc      0         |                
   |          7      2    0.250   1.793     qc      0         |                
   |         loc     3    0.000   1.793     pn      0         |                
   |                                                          |                
   | Augmentation charge Rinner = 1.263                       |                
   | Partial core correction Rc = 1.263                       |                
   ------------------------------------------------------------                
   | "3|1.8|9|10|11|30U:40:31:32(qc=5.5)"                     |                
   ------------------------------------------------------------                
   |      Author: Chris J. Pickard, Cambridge University      |                
   ============================================================                

 Atomic calculation performed for V: 1s2 2s2 2p6 3s2 3p6 3d3 4s2

 Converged in 81 iterations to an ae energy of -25823.733 eV

   ============================================================                
   | Pseudopotential Report - Date of generation  7-02-2024   |                
   ------------------------------------------------------------                
   | Element: V Ionic charge: 13.00 Level of theory: PBE      |                
   | Atomic Solver: Koelling-Harmon                           |                
   |                                                          |                
   |               Reference Electronic Structure             |                
   |         Orbital         Occupation         Energy        |                
   |            3s              2.000           -2.581        |                
   |            3p              6.000           -1.618        |                
   |            3d              3.000           -0.190        |                
   |            4s              2.000           -0.173        |                
   |                                                          |                
   |                 Pseudopotential Definition               |                
   |        Beta     l      e      Rc     scheme   norm       |                
   |          1      0   -2.581   1.803     qc      0         |                
   |          2      0   -0.173   1.803     qc      0         |                
   |          3      0    0.250   1.803     qc      0         |                
   |          4      1   -1.618   1.803     qc      0         |                
   |          5      1    0.250   1.803     qc      0         |                
   |          6      2   -0.190   1.803     qc      0         |                
   |          7      2    0.250   1.803     qc      0         |                
   |         loc     3    0.000   1.803     pn      0         |                
   |                                                          |                
   | Augmentation charge Rinner = 0.600                       |                
   | Partial core correction Rc = 0.600                       |                
   ------------------------------------------------------------                
   | "3|1.8|1.8|0.6|12|14|16|30U:40:31:32(qc=7)"              |                
   ------------------------------------------------------------                
   |      Author: Chris J. Pickard, Cambridge University      |                
   ============================================================                

 Pseudo atomic calculation performed for Al 3s2 3p1

 Converged in 15 iterations to a total energy of -107.1308 eV

 Pseudo atomic calculation performed for Ti 3s2 3p6 3d2 4s2

 Converged in 34 iterations to a total energy of -1587.0236 eV

 Pseudo atomic calculation performed for V 3s2 3p6 3d3 4s2

 Converged in 35 iterations to a total energy of -2065.7874 eV
 Calculation parallelised over 336 processes.
 Data is distributed by G-vector(24-way) and k-point(14-way)

 ************************************ Title ************************************
 

 ***************************** General Parameters ******************************
  
 output verbosity                               : normal  (1)
 write checkpoint data to                       : sqs_hcp_sc3x3x3_Ti46Al6V2_frame0_13.check
 type of calculation                            : single point energy
 stress calculation                             : on
 density difference calculation                 : off
 electron localisation func (ELF) calculation   : off
 Hirshfeld analysis                             : off
 polarisation (Berry phase) analysis            : off
 molecular orbital projected DOS                : off
 deltaSCF calculation                           : off
 unlimited duration calculation
 timing information                             : on
 memory usage estimate                          : on
 write extra output files                       : on
 write final potential to formatted file        : off
 write final density to formatted file          : off
 write BibTeX reference list                    : on
 write OTFG pseudopotential files               : on
 write electrostatic potential file             : on
 write bands file                               : on
 checkpoint writing                             : off
  
 output         length unit                     : A
 output           mass unit                     : amu
 output           time unit                     : ps
 output         charge unit                     : e
 output           spin unit                     : hbar/2
 output         energy unit                     : eV
 output          force unit                     : eV/A
 output       velocity unit                     : A/ps
 output       pressure unit                     : GPa
 output     inv_length unit                     : 1/A
 output      frequency unit                     : cm-1
 output force constant unit                     : eV/A**2
 output         volume unit                     : A**3
 output   IR intensity unit                     : (D/A)**2/amu
 output         dipole unit                     : D
 output         efield unit                     : eV/A/e
 output        entropy unit                     : J/mol/K
 output    efield chi2 unit                     : pm/V
  
 wavefunctions paging                           : none
 random number generator seed                   :  160308122
 data distribution                              : k-point only
 optimization strategy                          : maximize speed(+++)

 *********************** Exchange-Correlation Parameters ***********************
  
 using functional                               : Perdew Burke Ernzerhof
 relativistic treatment                         : Koelling-Harmon
 DFT+D: Semi-empirical dispersion correction    : off

 ************************* Pseudopotential Parameters **************************
  
 pseudopotential representation                 : reciprocal space
 <beta|phi> representation                      : reciprocal space
 spin-orbit coupling                            : off

 **************************** Basis Set Parameters *****************************
  
 plane wave basis set cut-off                   :   800.0000   eV
 size of standard grid                          :     2.0000
 size of   fine   gmax                          :    28.9810   1/A
 largest prime factor in FFT                    :          5
 finite basis set correction                    : automatic
 number of sample energies                      :          3
           sample  spacing                      :     5.0000   eV

 **************************** Electronic Parameters ****************************
  
 number of  electrons                           :  596.0    
 net charge of system                           :  0.000    
 treating system as non-spin-polarized
 number of bands                                :        333

 ********************* Electronic Minimization Parameters **********************
  
 Method: Treating system as metallic with density mixing treatment of electrons,
         and number of  SD  steps               :          1
         and number of  CG  steps               :          4
  
 total energy / atom convergence tol.           : 0.1000E-05   eV
 eigen-energy convergence tolerance             : 0.1622E-06   eV
 max force / atom convergence tol.              : ignored
 convergence tolerance window                   :          3   cycles
 max. number of SCF cycles                      :         30
 number of fixed-spin iterations                :         10
 smearing scheme                                : Gaussian
 smearing width                                 : 0.5000E-01   eV
 Fermi energy convergence tolerance             : 0.2721E-13   eV
 periodic dipole correction                     : NONE

 ************************** Density Mixing Parameters **************************
  
 density-mixing scheme                          : Pulay
 max. length of mixing history                  :         20
 charge density mixing amplitude                : 0.8000    
 cut-off energy for mixing                      :  800.0       eV
 charge density mixing g-vector                 :  1.500       1/A

 *********************** Population Analysis Parameters ************************
  
 Population analysis with cutoff                :  3.000       A
 Population analysis output                     : summary and pdos components

 ******************************* Developer Code ********************************
  
 PARALLEL: kpoint=14 : ENDPARALLEL
 no_improve_wvfn

 *******************************************************************************
  

                           -------------------------------
                                      Unit Cell
                           -------------------------------
        Real Lattice(A)                      Reciprocal Lattice(1/A)
     4.4130560    -7.5679570     0.0000100        0.711885971  -0.415117667   0.000003503
     4.4130560     7.5679570     0.0000440        0.711885971   0.415117667   0.000005417
    -0.0000870    -0.0000320    13.8866850       -0.000002768  -0.000001016   0.452461139

                       Lattice parameters(A)       Cell Angles
                    a =      8.760653          alpha =   90.000007
                    b =      8.760653          beta  =   90.000001
                    c =     13.886685          gamma =  119.505040

                       Current cell volume =           927.569958       A**3
                                   density =             2.658187   AMU/A**3
                                           =             4.414023     g/cm^3

                           -------------------------------
                                     Cell Contents
                           -------------------------------
                         Total number of ions in cell =   54
                      Total number of species in cell =    3
                        Max number of any one species =   46

            xxxxxxxxxxxxxxxxxxxxxxxxxxxxxxxxxxxxxxxxxxxxxxxxxxxxxxxxxxxx
            x  Element    Atom        Fractional coordinates of atoms  x
            x            Number           u          v          w      x
            x----------------------------------------------------------x
            x  Al           1         0.219996   0.444907   0.915446   x 
            x  Al           2         0.446433   0.883893   0.751022   x 
            x  Al           3         0.886441   0.111002   0.249256   x 
            x  Al           4         0.781569   0.221083   0.751621   x 
            x  Al           5         0.885394   0.445419   0.585027   x 
            x  Al           6         0.777651   0.548866   0.750608   x 
            x  Ti           1         0.103279   0.232817   0.080418   x 
            x  Ti           2         0.216155   0.108856   0.245566   x 
            x  Ti           3         0.110011   0.219632   0.413440   x 
            x  Ti           4         0.220396   0.113283   0.584501   x 
            x  Ti           5         0.109255   0.221623   0.755627   x 
            x  Ti           6         0.219503   0.114816   0.920475   x 
            x  Ti           7         0.215066   0.447222   0.246789   x 
            x  Ti           8         0.109295   0.558598   0.418778   x 
            x  Ti           9         0.222706   0.439540   0.582768   x 
            x  Ti          10         0.115625   0.554727   0.747779   x 
            x  Ti          11         0.107393   0.880274   0.081147   x 
            x  Ti          12         0.218892   0.774872   0.249152   x 
            x  Ti          13         0.113514   0.892110   0.417165   x 
            x  Ti          14         0.224863   0.783578   0.586854   x 
            x  Ti          15         0.119497   0.889742   0.754157   x 
            x  Ti          16         0.229912   0.775522   0.918082   x 
            x  Ti          17         0.447801   0.220534   0.082913   x 
            x  Ti          18         0.554973   0.109054   0.251671   x 
            x  Ti          19         0.439409   0.220787   0.414680   x 
            x  Ti          20         0.555972   0.109078   0.584947   x 
            x  Ti          21         0.445984   0.216759   0.751354   x 
            x  Ti          22         0.560802   0.103085   0.915914   x 
            x  Ti          23         0.437336   0.553747   0.080761   x 
            x  Ti          24         0.555177   0.444877   0.247306   x 
            x  Ti          25         0.444371   0.556499   0.413600   x 
            x  Ti          26         0.555187   0.443536   0.581254   x 
            x  Ti          27         0.447221   0.554440   0.750740   x 
            x  Ti          28         0.551306   0.441513   0.916646   x 
            x  Ti          29         0.439201   0.889437   0.083502   x 
            x  Ti          30         0.557427   0.783178   0.248438   x 
            x  Ti          31         0.439909   0.886969   0.420472   x 
            x  Ti          32         0.549436   0.772836   0.582393   x 
            x  Ti          33         0.553858   0.778457   0.918968   x 
            x  Ti          34         0.775398   0.217811   0.083901   x 
            x  Ti          35         0.780941   0.226238   0.419536   x 
            x  Ti          36         0.898446   0.122743   0.582247   x 
            x  Ti          37         0.781084   0.557143   0.079138   x 
            x  Ti          38         0.892695   0.446386   0.249959   x 
            x  Ti          39         0.777701   0.556095   0.418633   x 
            x  Ti          40         0.895009   0.437072   0.915384   x 
            x  Ti          41         0.785430   0.896558   0.081420   x 
            x  Ti          42         0.887957   0.781146   0.250966   x 
            x  Ti          43         0.778287   0.892939   0.418009   x 
            x  Ti          44         0.892531   0.775469   0.587315   x 
            x  Ti          45         0.775386   0.893703   0.751153   x 
            x  Ti          46         0.885543   0.776190   0.913040   x 
            x  V            1         0.116433   0.560537   0.079059   x 
            x  V            2         0.888941   0.112801   0.919001   x 
            xxxxxxxxxxxxxxxxxxxxxxxxxxxxxxxxxxxxxxxxxxxxxxxxxxxxxxxxxxxx


                         No user defined ionic velocities

                           -------------------------------
                                   Details of Species
                           -------------------------------

                               Mass of species in AMU
                                    Al   26.9815400
                                    Ti   47.8670000
                                    V   50.9415000

                          Electric Quadrupole Moment (Barn)
                                    Al    0.1466000 Isotope 27
                                    Ti    0.3020000 Isotope 47
                                    V   -0.0520000 Isotope 51

                          Files used for pseudopotentials:
                                    Al 3|2.2|2.2|1.4|4|5|5|30:31:32U2U2
                                    Ti 3|1.8|9|10|11|30U:40:31:32(qc=5.5)
                                    V 3|1.8|1.8|0.6|12|14|16|30U:40:31:32(qc=7)

                           -------------------------------
                              k-Points For BZ Sampling
                           -------------------------------
                       MP grid size for SCF calculation is  7  7  4
                            with an offset of   0.000  0.000  0.000
                       Number of kpoints used =            98

                           -------------------------------
                               Symmetry and Constraints
                           -------------------------------

                      Maximum deviation from symmetry =  0.00000         ANG

                      Number of symmetry operations   =           1
                      Number of ionic constraints     =           3
                      Point group of crystal =     1: C1, 1, 1
                      Space group of crystal =     1: P1, P 1

             Set iprint > 1 for details on symmetry rotations/translations

                         Centre of mass is constrained
             Set iprint > 1 for details of linear ionic constraints

                         Number of cell constraints= 0
                         Cell constraints are:  1 2 3 4 5 6

                         External pressure/stress (GPa)
                          0.00000   0.00000   0.00000
                                    0.00000   0.00000
                                              0.00000
 
+---------------- MEMORY AND SCRATCH DISK ESTIMATES PER PROCESS --------------+
|                                                     Memory          Disk    |
| Baseline code, static data and system overhead      591.0 MB         0.0 MB |
| BLAS internal memory storage                          0.0 MB         0.0 MB |
| Model and support data                              556.1 MB         0.0 MB |
| Electronic energy minimisation requirements         186.1 MB         0.0 MB |
| Force calculation requirements                        7.2 MB         0.0 MB |
| Stress calculation requirements                       7.7 MB         0.0 MB |
|                                               ----------------------------- |
| Approx. total storage required per process         1333.2 MB         0.0 MB |
|                                                                             |
| Requirements will fluctuate during execution and may exceed these estimates |
+-----------------------------------------------------------------------------+
Calculating finite basis set correction with  3 cut-off energies.
Calculating total energy with cut-off of  790.000 eV.
------------------------------------------------------------------------ <-- SCF
SCF loop      Energy           Fermi           Energy gain       Timer   <-- SCF
                               energy          per atom          (sec)   <-- SCF
------------------------------------------------------------------------ <-- SCF
Initial  -7.01895269E+004  0.00000000E+000                        24.89  <-- SCF
      1  -7.61496828E+004  1.15251099E+001   1.10373258E+002      95.56  <-- SCF
      2  -7.80231714E+004  9.15536530E+000   3.46942332E+001     153.49  <-- SCF
      3  -7.81364624E+004  8.87160700E+000   2.09798185E+000     214.47  <-- SCF
      4  -7.81418868E+004  8.06776159E+000   1.00451186E-001     281.19  <-- SCF
      5  -7.81435056E+004  8.23165486E+000   2.99784820E-002     355.08  <-- SCF
      6  -7.81366556E+004  8.42200394E+000  -1.26852817E-001     423.24  <-- SCF
      7  -7.81345785E+004  8.41428728E+000  -3.84642909E-002     495.44  <-- SCF
      8  -7.81347851E+004  8.36192363E+000   3.82680255E-003     565.23  <-- SCF
      9  -7.81345377E+004  8.35519529E+000  -4.58160330E-003     632.78  <-- SCF
     10  -7.81345235E+004  8.35625272E+000  -2.62763162E-004     702.69  <-- SCF
     11  -7.81344718E+004  8.35535714E+000  -9.58016131E-004     769.06  <-- SCF
     12  -7.81344742E+004  8.35441382E+000   4.35460114E-005     838.90  <-- SCF
     13  -7.81344708E+004  8.35384935E+000  -6.26523362E-005     901.77  <-- SCF
     14  -7.81344710E+004  8.35377944E+000   4.51948948E-006     960.72  <-- SCF
     15  -7.81344707E+004  8.35383918E+000  -5.73533881E-006    1013.71  <-- SCF
     16  -7.81344707E+004  8.35379210E+000  -2.19129707E-007    1055.39  <-- SCF
     17  -7.81344707E+004  8.35383228E+000  -9.89513654E-008    1095.25  <-- SCF
------------------------------------------------------------------------ <-- SCF
 
Final energy, E             =  -78134.39799030     eV
Final free energy (E-TS)    =  -78134.47069029     eV
(energies not corrected for finite basis set)
 
NB est. 0K energy (E-0.5TS)      =  -78134.43434029     eV
 
Calculating total energy with cut-off of  795.000 eV.
------------------------------------------------------------------------ <-- SCF
SCF loop      Energy           Fermi           Energy gain       Timer   <-- SCF
                               energy          per atom          (sec)   <-- SCF
------------------------------------------------------------------------ <-- SCF
Initial  -7.81343979E+004  0.00000000E+000                      1105.95  <-- SCF
      1  -7.81344735E+004  8.35399555E+000   1.39909406E-003    1163.00  <-- SCF
      2  -7.81344737E+004  8.35399443E+000   3.43491045E-006    1218.90  <-- SCF
      3  -7.81345447E+004  8.35111392E+000   1.31551165E-003    1285.03  <-- SCF
      4  -7.81344760E+004  8.35523654E+000  -1.27191250E-003    1350.62  <-- SCF
      5  -7.81344714E+004  8.35398016E+000  -8.48905570E-005    1411.28  <-- SCF
      6  -7.81344718E+004  8.35372558E+000   6.16978441E-006    1471.73  <-- SCF
      7  -7.81344716E+004  8.35386686E+000  -2.29498252E-006    1523.35  <-- SCF
      8  -7.81344716E+004  8.35380382E+000  -8.09987913E-007    1563.82  <-- SCF
      9  -7.81344716E+004  8.35380030E+000   3.79501626E-009    1602.91  <-- SCF
------------------------------------------------------------------------ <-- SCF
 
Final energy, E             =  -78134.39889283     eV
Final free energy (E-TS)    =  -78134.47160141     eV
(energies not corrected for finite basis set)
 
NB est. 0K energy (E-0.5TS)      =  -78134.43524712     eV
 
Calculating total energy with cut-off of  800.000 eV.
------------------------------------------------------------------------ <-- SCF
SCF loop      Energy           Fermi           Energy gain       Timer   <-- SCF
                               energy          per atom          (sec)   <-- SCF
------------------------------------------------------------------------ <-- SCF
Initial  -7.81343988E+004  0.00000000E+000                      1613.85  <-- SCF
      1  -7.81344794E+004  8.35371776E+000   1.49287384E-003    1679.01  <-- SCF
      2  -7.81344795E+004  8.35371562E+000   2.55145009E-006    1735.98  <-- SCF
      3  -7.81346862E+004  8.35333343E+000   3.82744771E-003    1807.45  <-- SCF
      4  -7.81344826E+004  8.35319322E+000  -3.76934723E-003    1878.33  <-- SCF
      5  -7.81344718E+004  8.35402729E+000  -2.01563962E-004    1940.88  <-- SCF
      6  -7.81344730E+004  8.35406880E+000   2.25809371E-005    2007.41  <-- SCF
      7  -7.81344726E+004  8.35365273E+000  -7.30484190E-006    2069.01  <-- SCF
      8  -7.81344725E+004  8.35382542E+000  -1.79043281E-006    2116.29  <-- SCF
      9  -7.81344725E+004  8.35384711E+000  -1.74056069E-007    2159.32  <-- SCF
     10  -7.81344725E+004  8.35385093E+000  -5.52501296E-008    2201.20  <-- SCF
------------------------------------------------------------------------ <-- SCF
 
Final energy, E             =  -78134.39977464     eV
Final free energy (E-TS)    =  -78134.47247525     eV
(energies not corrected for finite basis set)
 
NB est. 0K energy (E-0.5TS)      =  -78134.43612495     eV
 
 For future reference: finite basis dEtot/dlog(Ecut) =      -0.141602eV
 Total energy corrected for finite basis set =  -78134.472473 eV

 ************************** Forces **************************
 *                                                          *
 *               Cartesian components (eV/A)                *
 * -------------------------------------------------------- *
 *                         x            y            z      *
 *                                                          *
 * Al              1      0.05636     -0.01609      0.06388 *
 * Al              2     -0.04026     -0.02911     -0.06411 *
 * Al              3      0.00429     -0.01673      0.08196 *
 * Al              4     -0.03150      0.05038     -0.03812 *
 * Al              5     -0.03600     -0.06961      0.04974 *
 * Al              6      0.04508      0.13818      0.03316 *
 * Ti              1     -0.00915      0.06873     -0.02739 *
 * Ti              2     -0.01253      0.00897      0.00703 *
 * Ti              3     -0.00766     -0.00402      0.00511 *
 * Ti              4     -0.01345     -0.00035     -0.04555 *
 * Ti              5      0.02504     -0.03262     -0.10621 *
 * Ti              6      0.06354      0.01171      0.02064 *
 * Ti              7     -0.05117      0.00307      0.00783 *
 * Ti              8     -0.00895      0.00098     -0.03955 *
 * Ti              9      0.02793     -0.06084      0.05764 *
 * Ti             10     -0.06199      0.08908      0.02937 *
 * Ti             11     -0.02461     -0.03224     -0.04183 *
 * Ti             12     -0.03418     -0.02919      0.01950 *
 * Ti             13      0.01317      0.03319      0.03604 *
 * Ti             14      0.02909     -0.02020      0.03081 *
 * Ti             15     -0.04486      0.12578     -0.03354 *
 * Ti             16     -0.04294      0.07584     -0.01335 *
 * Ti             17      0.01691      0.01624     -0.01565 *
 * Ti             18      0.03985     -0.02039     -0.08558 *
 * Ti             19     -0.01665      0.05252      0.04291 *
 * Ti             20     -0.03369      0.02785     -0.12762 *
 * Ti             21      0.01032      0.01091      0.00030 *
 * Ti             22     -0.04171      0.10496      0.11187 *
 * Ti             23     -0.01077      0.03787     -0.05753 *
 * Ti             24     -0.02253     -0.03714      0.00685 *
 * Ti             25      0.01908      0.02772      0.01174 *
 * Ti             26      0.01040     -0.04455     -0.05378 *
 * Ti             27      0.06998      0.02583      0.02562 *
 * Ti             28     -0.01861     -0.02566      0.06910 *
 * Ti             29     -0.11559      0.04327     -0.01391 *
 * Ti             30      0.06855     -0.04795      0.00393 *
 * Ti             31     -0.03767      0.02396     -0.07338 *
 * Ti             32     -0.04678     -0.08569     -0.05367 *
 * Ti             33      0.01218     -0.13428      0.04094 *
 * Ti             34     -0.02049     -0.02876     -0.07418 *
 * Ti             35      0.01607      0.00681      0.00345 *
 * Ti             36      0.00902     -0.08190     -0.04654 *
 * Ti             37     -0.00711      0.01968     -0.00907 *
 * Ti             38      0.02149     -0.08800     -0.08747 *
 * Ti             39      0.00590     -0.00135      0.07137 *
 * Ti             40     -0.00361      0.06139      0.06275 *
 * Ti             41     -0.01379      0.08251     -0.00981 *
 * Ti             42      0.03094     -0.01905     -0.02450 *
 * Ti             43      0.00207      0.03082     -0.05105 *
 * Ti             44     -0.03387     -0.05143     -0.04503 *
 * Ti             45     -0.05445     -0.04772     -0.03219 *
 * Ti             46      0.00633     -0.05911      0.11220 *
 * V               1      0.07433      0.08909      0.35496 *
 * V               2      0.21865     -0.18337     -0.09010 *
 *                                                          *
 ************************************************************

 ***************** Stress Tensor *****************
 *                                               *
 *          Cartesian components (GPa)           *
 * --------------------------------------------- *
 *             x             y             z     *
 *                                               *
 *  x      1.855560     -0.066615     -0.186504  *
 *  y     -0.066615      0.756011     -0.061347  *
 *  z     -0.186504     -0.061347      0.688778  *
 *                                               *
 *  Pressure:   -1.1001                          *
 *                                               *
 *************************************************

 Pseudo atomic calculation performed for Al 3s2 3p1

 Converged in 15 iterations to a total energy of -107.1308 eV

 Pseudo atomic calculation performed for Ti 3s2 3p6 3d2 4s2

 Converged in 34 iterations to a total energy of -1587.0236 eV

 Pseudo atomic calculation performed for V 3s2 3p6 3d3 4s2

 Converged in 35 iterations to a total energy of -2065.7874 eV
Charge spilling parameter for spin component 1 = 0.09%

            Orbital Populations       
     Ion    Atom   Orbital             Charge
  -------------------------------------------
     Al     1      S                    0.930
     Al     1      Px                   0.679
     Al     1      Py                   0.687
     Al     1      Pz                   0.708
     Al     2      S                    0.948
     Al     2      Px                   0.643
     Al     2      Py                   0.705
     Al     2      Pz                   0.710
     Al     3      S                    0.938
     Al     3      Px                   0.687
     Al     3      Py                   0.686
     Al     3      Pz                   0.712
     Al     4      S                    0.967
     Al     4      Px                   0.655
     Al     4      Py                   0.679
     Al     4      Pz                   0.684
     Al     5      S                    0.963
     Al     5      Px                   0.696
     Al     5      Py                   0.702
     Al     5      Pz                   0.646
     Al     6      S                    0.969
     Al     6      Px                   0.678
     Al     6      Py                   0.656
     Al     6      Pz                   0.690
     Ti     1      S                    2.003
     Ti     1      Px                   2.005
     Ti     1      Py                   2.004
     Ti     1      Pz                   2.006
     Ti     1      S                    0.305
     Ti     1      Dzz                  0.606
     Ti     1      Dzy                  0.465
     Ti     1      Dzx                  0.510
     Ti     1      Dxx-yy               0.571
     Ti     1      Dxy                  0.566
     Ti     1      Px                   0.323
     Ti     1      Py                   0.321
     Ti     1      Pz                   0.283
     Ti     2      S                    2.002
     Ti     2      Px                   2.005
     Ti     2      Py                   2.005
     Ti     2      Pz                   2.005
     Ti     2      S                    0.319
     Ti     2      Dzz                  0.597
     Ti     2      Dzy                  0.475
     Ti     2      Dzx                  0.497
     Ti     2      Dxx-yy               0.570
     Ti     2      Dxy                  0.570
     Ti     2      Px                   0.322
     Ti     2      Py                   0.315
     Ti     2      Pz                   0.313
     Ti     3      S                    2.003
     Ti     3      Px                   2.005
     Ti     3      Py                   2.005
     Ti     3      Pz                   2.005
     Ti     3      S                    0.309
     Ti     3      Dzz                  0.613
     Ti     3      Dzy                  0.492
     Ti     3      Dzx                  0.462
     Ti     3      Dxx-yy               0.573
     Ti     3      Dxy                  0.563
     Ti     3      Px                   0.320
     Ti     3      Py                   0.332
     Ti     3      Pz                   0.299
     Ti     4      S                    2.003
     Ti     4      Px                   2.005
     Ti     4      Py                   2.005
     Ti     4      Pz                   2.005
     Ti     4      S                    0.304
     Ti     4      Dzz                  0.615
     Ti     4      Dzy                  0.486
     Ti     4      Dzx                  0.457
     Ti     4      Dxx-yy               0.573
     Ti     4      Dxy                  0.564
     Ti     4      Px                   0.328
     Ti     4      Py                   0.335
     Ti     4      Pz                   0.335
     Ti     5      S                    2.002
     Ti     5      Px                   2.005
     Ti     5      Py                   2.005
     Ti     5      Pz                   2.005
     Ti     5      S                    0.310
     Ti     5      Dzz                  0.627
     Ti     5      Dzy                  0.495
     Ti     5      Dzx                  0.463
     Ti     5      Dxx-yy               0.585
     Ti     5      Dxy                  0.531
     Ti     5      Px                   0.325
     Ti     5      Py                   0.294
     Ti     5      Pz                   0.314
     Ti     6      S                    2.002
     Ti     6      Px                   2.004
     Ti     6      Py                   2.005
     Ti     6      Pz                   2.005
     Ti     6      S                    0.317
     Ti     6      Dzz                  0.594
     Ti     6      Dzy                  0.505
     Ti     6      Dzx                  0.478
     Ti     6      Dxx-yy               0.564
     Ti     6      Dxy                  0.566
     Ti     6      Px                   0.321
     Ti     6      Py                   0.324
     Ti     6      Pz                   0.318
     Ti     7      S                    2.002
     Ti     7      Px                   2.005
     Ti     7      Py                   2.005
     Ti     7      Pz                   2.005
     Ti     7      S                    0.320
     Ti     7      Dzz                  0.586
     Ti     7      Dzy                  0.510
     Ti     7      Dzx                  0.476
     Ti     7      Dxx-yy               0.529
     Ti     7      Dxy                  0.602
     Ti     7      Px                   0.301
     Ti     7      Py                   0.340
     Ti     7      Pz                   0.328
     Ti     8      S                    2.003
     Ti     8      Px                   2.005
     Ti     8      Py                   2.005
     Ti     8      Pz                   2.005
     Ti     8      S                    0.314
     Ti     8      Dzz                  0.620
     Ti     8      Dzy                  0.464
     Ti     8      Dzx                  0.476
     Ti     8      Dxx-yy               0.571
     Ti     8      Dxy                  0.575
     Ti     8      Px                   0.326
     Ti     8      Py                   0.330
     Ti     8      Pz                   0.287
     Ti     9      S                    2.002
     Ti     9      Px                   2.005
     Ti     9      Py                   2.005
     Ti     9      Pz                   2.005
     Ti     9      S                    0.323
     Ti     9      Dzz                  0.592
     Ti     9      Dzy                  0.458
     Ti     9      Dzx                  0.517
     Ti     9      Dxx-yy               0.550
     Ti     9      Dxy                  0.571
     Ti     9      Px                   0.328
     Ti     9      Py                   0.309
     Ti     9      Pz                   0.328
     Ti    10      S                    2.002
     Ti    10      Px                   2.005
     Ti    10      Py                   2.005
     Ti    10      Pz                   2.006
     Ti    10      S                    0.337
     Ti    10      Dzz                  0.624
     Ti    10      Dzy                  0.495
     Ti    10      Dzx                  0.485
     Ti    10      Dxx-yy               0.538
     Ti    10      Dxy                  0.610
     Ti    10      Px                   0.277
     Ti    10      Py                   0.308
     Ti    10      Pz                   0.307
     Ti    11      S                    2.003
     Ti    11      Px                   2.005
     Ti    11      Py                   2.005
     Ti    11      Pz                   2.005
     Ti    11      S                    0.316
     Ti    11      Dzz                  0.600
     Ti    11      Dzy                  0.503
     Ti    11      Dzx                  0.463
     Ti    11      Dxx-yy               0.571
     Ti    11      Dxy                  0.565
     Ti    11      Px                   0.333
     Ti    11      Py                   0.341
     Ti    11      Pz                   0.318
     Ti    12      S                    2.003
     Ti    12      Px                   2.005
     Ti    12      Py                   2.005
     Ti    12      Pz                   2.005
     Ti    12      S                    0.298
     Ti    12      Dzz                  0.619
     Ti    12      Dzy                  0.463
     Ti    12      Dzx                  0.466
     Ti    12      Dxx-yy               0.575
     Ti    12      Dxy                  0.574
     Ti    12      Px                   0.331
     Ti    12      Py                   0.325
     Ti    12      Pz                   0.341
     Ti    13      S                    2.003
     Ti    13      Px                   2.005
     Ti    13      Py                   2.005
     Ti    13      Pz                   2.005
     Ti    13      S                    0.312
     Ti    13      Dzz                  0.596
     Ti    13      Dzy                  0.484
     Ti    13      Dzx                  0.473
     Ti    13      Dxx-yy               0.569
     Ti    13      Dxy                  0.565
     Ti    13      Px                   0.330
     Ti    13      Py                   0.335
     Ti    13      Pz                   0.313
     Ti    14      S                    2.003
     Ti    14      Px                   2.005
     Ti    14      Py                   2.005
     Ti    14      Pz                   2.006
     Ti    14      S                    0.324
     Ti    14      Dzz                  0.616
     Ti    14      Dzy                  0.493
     Ti    14      Dzx                  0.486
     Ti    14      Dxx-yy               0.538
     Ti    14      Dxy                  0.583
     Ti    14      Px                   0.292
     Ti    14      Py                   0.343
     Ti    14      Pz                   0.303
     Ti    15      S                    2.002
     Ti    15      Px                   2.004
     Ti    15      Py                   2.005
     Ti    15      Pz                   2.005
     Ti    15      S                    0.332
     Ti    15      Dzz                  0.583
     Ti    15      Dzy                  0.481
     Ti    15      Dzx                  0.524
     Ti    15      Dxx-yy               0.541
     Ti    15      Dxy                  0.584
     Ti    15      Px                   0.287
     Ti    15      Py                   0.321
     Ti    15      Pz                   0.332
     Ti    16      S                    2.003
     Ti    16      Px                   2.005
     Ti    16      Py                   2.005
     Ti    16      Pz                   2.006
     Ti    16      S                    0.306
     Ti    16      Dzz                  0.604
     Ti    16      Dzy                  0.494
     Ti    16      Dzx                  0.482
     Ti    16      Dxx-yy               0.585
     Ti    16      Dxy                  0.552
     Ti    16      Px                   0.326
     Ti    16      Py                   0.301
     Ti    16      Pz                   0.300
     Ti    17      S                    2.003
     Ti    17      Px                   2.005
     Ti    17      Py                   2.005
     Ti    17      Pz                   2.005
     Ti    17      S                    0.313
     Ti    17      Dzz                  0.598
     Ti    17      Dzy                  0.505
     Ti    17      Dzx                  0.465
     Ti    17      Dxx-yy               0.575
     Ti    17      Dxy                  0.556
     Ti    17      Px                   0.331
     Ti    17      Py                   0.345
     Ti    17      Pz                   0.320
     Ti    18      S                    2.003
     Ti    18      Px                   2.005
     Ti    18      Py                   2.005
     Ti    18      Pz                   2.005
     Ti    18      S                    0.320
     Ti    18      Dzz                  0.621
     Ti    18      Dzy                  0.494
     Ti    18      Dzx                  0.463
     Ti    18      Dxx-yy               0.597
     Ti    18      Dxy                  0.538
     Ti    18      Px                   0.336
     Ti    18      Py                   0.304
     Ti    18      Pz                   0.318
     Ti    19      S                    2.003
     Ti    19      Px                   2.005
     Ti    19      Py                   2.005
     Ti    19      Pz                   2.005
     Ti    19      S                    0.315
     Ti    19      Dzz                  0.591
     Ti    19      Dzy                  0.480
     Ti    19      Dzx                  0.488
     Ti    19      Dxx-yy               0.561
     Ti    19      Dxy                  0.576
     Ti    19      Px                   0.334
     Ti    19      Py                   0.331
     Ti    19      Pz                   0.325
     Ti    20      S                    2.002
     Ti    20      Px                   2.005
     Ti    20      Py                   2.005
     Ti    20      Pz                   2.005
     Ti    20      S                    0.323
     Ti    20      Dzz                  0.589
     Ti    20      Dzy                  0.503
     Ti    20      Dzx                  0.491
     Ti    20      Dxx-yy               0.540
     Ti    20      Dxy                  0.599
     Ti    20      Px                   0.293
     Ti    20      Py                   0.331
     Ti    20      Pz                   0.280
     Ti    21      S                    2.002
     Ti    21      Px                   2.004
     Ti    21      Py                   2.005
     Ti    21      Pz                   2.004
     Ti    21      S                    0.353
     Ti    21      Dzz                  0.606
     Ti    21      Dzy                  0.481
     Ti    21      Dzx                  0.497
     Ti    21      Dxx-yy               0.540
     Ti    21      Dxy                  0.586
     Ti    21      Px                   0.287
     Ti    21      Py                   0.311
     Ti    21      Pz                   0.338
     Ti    22      S                    2.002
     Ti    22      Px                   2.005
     Ti    22      Py                   2.004
     Ti    22      Pz                   2.005
     Ti    22      S                    0.305
     Ti    22      Dzz                  0.620
     Ti    22      Dzy                  0.474
     Ti    22      Dzx                  0.478
     Ti    22      Dxx-yy               0.567
     Ti    22      Dxy                  0.571
     Ti    22      Px                   0.325
     Ti    22      Py                   0.331
     Ti    22      Pz                   0.277
     Ti    23      S                    2.002
     Ti    23      Px                   2.005
     Ti    23      Py                   2.005
     Ti    23      Pz                   2.005
     Ti    23      S                    0.305
     Ti    23      Dzz                  0.614
     Ti    23      Dzy                  0.483
     Ti    23      Dzx                  0.486
     Ti    23      Dxx-yy               0.559
     Ti    23      Dxy                  0.568
     Ti    23      Px                   0.323
     Ti    23      Py                   0.336
     Ti    23      Pz                   0.295
     Ti    24      S                    2.002
     Ti    24      Px                   2.004
     Ti    24      Py                   2.004
     Ti    24      Pz                   2.004
     Ti    24      S                    0.313
     Ti    24      Dzz                  0.614
     Ti    24      Dzy                  0.475
     Ti    24      Dzx                  0.475
     Ti    24      Dxx-yy               0.555
     Ti    24      Dxy                  0.569
     Ti    24      Px                   0.333
     Ti    24      Py                   0.331
     Ti    24      Pz                   0.327
     Ti    25      S                    2.003
     Ti    25      Px                   2.005
     Ti    25      Py                   2.005
     Ti    25      Pz                   2.005
     Ti    25      S                    0.309
     Ti    25      Dzz                  0.604
     Ti    25      Dzy                  0.488
     Ti    25      Dzx                  0.477
     Ti    25      Dxx-yy               0.566
     Ti    25      Dxy                  0.573
     Ti    25      Px                   0.335
     Ti    25      Py                   0.331
     Ti    25      Pz                   0.328
     Ti    26      S                    2.003
     Ti    26      Px                   2.005
     Ti    26      Py                   2.005
     Ti    26      Pz                   2.005
     Ti    26      S                    0.328
     Ti    26      Dzz                  0.593
     Ti    26      Dzy                  0.526
     Ti    26      Dzx                  0.466
     Ti    26      Dxx-yy               0.595
     Ti    26      Dxy                  0.543
     Ti    26      Px                   0.320
     Ti    26      Py                   0.305
     Ti    26      Pz                   0.309
     Ti    27      S                    2.002
     Ti    27      Px                   2.005
     Ti    27      Py                   2.005
     Ti    27      Pz                   2.005
     Ti    27      S                    0.323
     Ti    27      Dzz                  0.618
     Ti    27      Dzy                  0.490
     Ti    27      Dzx                  0.482
     Ti    27      Dxx-yy               0.589
     Ti    27      Dxy                  0.547
     Ti    27      Px                   0.318
     Ti    27      Py                   0.278
     Ti    27      Pz                   0.313
     Ti    28      S                    2.003
     Ti    28      Px                   2.005
     Ti    28      Py                   2.005
     Ti    28      Pz                   2.005
     Ti    28      S                    0.327
     Ti    28      Dzz                  0.604
     Ti    28      Dzy                  0.488
     Ti    28      Dzx                  0.485
     Ti    28      Dxx-yy               0.580
     Ti    28      Dxy                  0.555
     Ti    28      Px                   0.319
     Ti    28      Py                   0.320
     Ti    28      Pz                   0.302
     Ti    29      S                    2.003
     Ti    29      Px                   2.006
     Ti    29      Py                   2.005
     Ti    29      Pz                   2.006
     Ti    29      S                    0.301
     Ti    29      Dzz                  0.591
     Ti    29      Dzy                  0.483
     Ti    29      Dzx                  0.502
     Ti    29      Dxx-yy               0.562
     Ti    29      Dxy                  0.552
     Ti    29      Px                   0.349
     Ti    29      Py                   0.335
     Ti    29      Pz                   0.301
     Ti    30      S                    2.003
     Ti    30      Px                   2.005
     Ti    30      Py                   2.005
     Ti    30      Pz                   2.005
     Ti    30      S                    0.329
     Ti    30      Dzz                  0.603
     Ti    30      Dzy                  0.486
     Ti    30      Dzx                  0.477
     Ti    30      Dxx-yy               0.545
     Ti    30      Dxy                  0.606
     Ti    30      Px                   0.302
     Ti    30      Py                   0.336
     Ti    30      Pz                   0.319
     Ti    31      S                    2.003
     Ti    31      Px                   2.005
     Ti    31      Py                   2.005
     Ti    31      Pz                   2.005
     Ti    31      S                    0.310
     Ti    31      Dzz                  0.585
     Ti    31      Dzy                  0.485
     Ti    31      Dzx                  0.490
     Ti    31      Dxx-yy               0.559
     Ti    31      Dxy                  0.571
     Ti    31      Px                   0.338
     Ti    31      Py                   0.340
     Ti    31      Pz                   0.321
     Ti    32      S                    2.002
     Ti    32      Px                   2.004
     Ti    32      Py                   2.005
     Ti    32      Pz                   2.005
     Ti    32      S                    0.317
     Ti    32      Dzz                  0.602
     Ti    32      Dzy                  0.489
     Ti    32      Dzx                  0.488
     Ti    32      Dxx-yy               0.565
     Ti    32      Dxy                  0.542
     Ti    32      Px                   0.335
     Ti    32      Py                   0.322
     Ti    32      Pz                   0.301
     Ti    33      S                    2.003
     Ti    33      Px                   2.005
     Ti    33      Py                   2.006
     Ti    33      Pz                   2.006
     Ti    33      S                    0.327
     Ti    33      Dzz                  0.598
     Ti    33      Dzy                  0.492
     Ti    33      Dzx                  0.481
     Ti    33      Dxx-yy               0.554
     Ti    33      Dxy                  0.584
     Ti    33      Px                   0.305
     Ti    33      Py                   0.327
     Ti    33      Pz                   0.303
     Ti    34      S                    2.002
     Ti    34      Px                   2.004
     Ti    34      Py                   2.005
     Ti    34      Pz                   2.005
     Ti    34      S                    0.310
     Ti    34      Dzz                  0.596
     Ti    34      Dzy                  0.505
     Ti    34      Dzx                  0.471
     Ti    34      Dxx-yy               0.569
     Ti    34      Dxy                  0.551
     Ti    34      Px                   0.343
     Ti    34      Py                   0.319
     Ti    34      Pz                   0.305
     Ti    35      S                    2.002
     Ti    35      Px                   2.005
     Ti    35      Py                   2.005
     Ti    35      Pz                   2.005
     Ti    35      S                    0.315
     Ti    35      Dzz                  0.616
     Ti    35      Dzy                  0.487
     Ti    35      Dzx                  0.478
     Ti    35      Dxx-yy               0.573
     Ti    35      Dxy                  0.562
     Ti    35      Px                   0.331
     Ti    35      Py                   0.318
     Ti    35      Pz                   0.282
     Ti    36      S                    2.002
     Ti    36      Px                   2.005
     Ti    36      Py                   2.005
     Ti    36      Pz                   2.005
     Ti    36      S                    0.324
     Ti    36      Dzz                  0.592
     Ti    36      Dzy                  0.479
     Ti    36      Dzx                  0.517
     Ti    36      Dxx-yy               0.557
     Ti    36      Dxy                  0.566
     Ti    36      Px                   0.332
     Ti    36      Py                   0.305
     Ti    36      Pz                   0.317
     Ti    37      S                    2.002
     Ti    37      Px                   2.004
     Ti    37      Py                   2.004
     Ti    37      Pz                   2.004
     Ti    37      S                    0.314
     Ti    37      Dzz                  0.599
     Ti    37      Dzy                  0.477
     Ti    37      Dzx                  0.481
     Ti    37      Dxx-yy               0.557
     Ti    37      Dxy                  0.576
     Ti    37      Px                   0.335
     Ti    37      Py                   0.338
     Ti    37      Pz                   0.329
     Ti    38      S                    2.002
     Ti    38      Px                   2.005
     Ti    38      Py                   2.004
     Ti    38      Pz                   2.004
     Ti    38      S                    0.321
     Ti    38      Dzz                  0.598
     Ti    38      Dzy                  0.491
     Ti    38      Dzx                  0.473
     Ti    38      Dxx-yy               0.601
     Ti    38      Dxy                  0.535
     Ti    38      Px                   0.337
     Ti    38      Py                   0.300
     Ti    38      Pz                   0.323
     Ti    39      S                    2.002
     Ti    39      Px                   2.005
     Ti    39      Py                   2.005
     Ti    39      Pz                   2.005
     Ti    39      S                    0.313
     Ti    39      Dzz                  0.616
     Ti    39      Dzy                  0.470
     Ti    39      Dzx                  0.476
     Ti    39      Dxx-yy               0.581
     Ti    39      Dxy                  0.566
     Ti    39      Px                   0.334
     Ti    39      Py                   0.318
     Ti    39      Pz                   0.306
     Ti    40      S                    2.002
     Ti    40      Px                   2.004
     Ti    40      Py                   2.005
     Ti    40      Pz                   2.005
     Ti    40      S                    0.312
     Ti    40      Dzz                  0.622
     Ti    40      Dzy                  0.473
     Ti    40      Dzx                  0.490
     Ti    40      Dxx-yy               0.596
     Ti    40      Dxy                  0.539
     Ti    40      Px                   0.329
     Ti    40      Py                   0.288
     Ti    40      Pz                   0.294
     Ti    41      S                    2.003
     Ti    41      Px                   2.005
     Ti    41      Py                   2.005
     Ti    41      Pz                   2.005
     Ti    41      S                    0.300
     Ti    41      Dzz                  0.602
     Ti    41      Dzy                  0.484
     Ti    41      Dzx                  0.491
     Ti    41      Dxx-yy               0.564
     Ti    41      Dxy                  0.571
     Ti    41      Px                   0.319
     Ti    41      Py                   0.324
     Ti    41      Pz                   0.308
     Ti    42      S                    2.003
     Ti    42      Px                   2.005
     Ti    42      Py                   2.005
     Ti    42      Pz                   2.005
     Ti    42      S                    0.328
     Ti    42      Dzz                  0.612
     Ti    42      Dzy                  0.461
     Ti    42      Dzx                  0.495
     Ti    42      Dxx-yy               0.584
     Ti    42      Dxy                  0.564
     Ti    42      Px                   0.325
     Ti    42      Py                   0.315
     Ti    42      Pz                   0.321
     Ti    43      S                    2.002
     Ti    43      Px                   2.005
     Ti    43      Py                   2.005
     Ti    43      Pz                   2.005
     Ti    43      S                    0.313
     Ti    43      Dzz                  0.604
     Ti    43      Dzy                  0.483
     Ti    43      Dzx                  0.483
     Ti    43      Dxx-yy               0.569
     Ti    43      Dxy                  0.569
     Ti    43      Px                   0.327
     Ti    43      Py                   0.331
     Ti    43      Pz                   0.303
     Ti    44      S                    2.002
     Ti    44      Px                   2.005
     Ti    44      Py                   2.004
     Ti    44      Pz                   2.005
     Ti    44      S                    0.327
     Ti    44      Dzz                  0.600
     Ti    44      Dzy                  0.501
     Ti    44      Dzx                  0.484
     Ti    44      Dxx-yy               0.594
     Ti    44      Dxy                  0.543
     Ti    44      Px                   0.321
     Ti    44      Py                   0.304
     Ti    44      Pz                   0.318
     Ti    45      S                    2.002
     Ti    45      Px                   2.005
     Ti    45      Py                   2.004
     Ti    45      Pz                   2.004
     Ti    45      S                    0.332
     Ti    45      Dzz                  0.585
     Ti    45      Dzy                  0.504
     Ti    45      Dzx                  0.485
     Ti    45      Dxx-yy               0.629
     Ti    45      Dxy                  0.520
     Ti    45      Px                   0.337
     Ti    45      Py                   0.256
     Ti    45      Pz                   0.344
     Ti    46      S                    2.002
     Ti    46      Px                   2.004
     Ti    46      Py                   2.004
     Ti    46      Pz                   2.005
     Ti    46      S                    0.315
     Ti    46      Dzz                  0.613
     Ti    46      Dzy                  0.486
     Ti    46      Dzx                  0.487
     Ti    46      Dxx-yy               0.549
     Ti    46      Dxy                  0.573
     Ti    46      Px                   0.328
     Ti    46      Py                   0.337
     Ti    46      Pz                   0.306
      V     1      S                    2.001
      V     1      Px                   2.003
      V     1      Py                   2.003
      V     1      Pz                   2.003
      V     1      Dzz                  0.871
      V     1      Dzy                  0.638
      V     1      Dzx                  0.677
      V     1      Dxx-yy               0.758
      V     1      Dxy                  0.777
      V     1      S                    0.372
      V     1      Px                   0.341
      V     1      Py                   0.319
      V     1      Pz                   0.302
      V     2      S                    2.001
      V     2      Px                   2.003
      V     2      Py                   2.003
      V     2      Pz                   2.003
      V     2      Dzz                  0.801
      V     2      Dzy                  0.650
      V     2      Dzx                  0.745
      V     2      Dxx-yy               0.686
      V     2      Dxy                  0.842
      V     2      S                    0.380
      V     2      Px                   0.307
      V     2      Py                   0.331
      V     2      Pz                   0.295
  -------------------------------------------
                           Total:     596.000
  -------------------------------------------

     Atomic Populations (Mulliken)
     -----------------------------
Species          Ion     s       p       d       f      Total   Charge (e)
==========================================================================
  Al              1     0.930   2.074   0.000   0.000   3.004    -0.004
  Al              2     0.948   2.058   0.000   0.000   3.006    -0.006
  Al              3     0.938   2.085   0.000   0.000   3.023    -0.023
  Al              4     0.967   2.018   0.000   0.000   2.985     0.015
  Al              5     0.963   2.044   0.000   0.000   3.007    -0.007
  Al              6     0.969   2.024   0.000   0.000   2.993     0.007
  Ti              1     2.308   6.942   2.719   0.000  11.968     0.032
  Ti              2     2.322   6.964   2.709   0.000  11.995     0.005
  Ti              3     2.311   6.966   2.703   0.000  11.981     0.019
  Ti              4     2.307   7.013   2.696   0.000  12.016    -0.016
  Ti              5     2.312   6.948   2.702   0.000  11.961     0.039
  Ti              6     2.319   6.977   2.707   0.000  12.003    -0.003
  Ti              7     2.322   6.983   2.703   0.000  12.008    -0.008
  Ti              8     2.316   6.958   2.706   0.000  11.981     0.019
  Ti              9     2.325   6.980   2.688   0.000  11.993     0.007
  Ti             10     2.340   6.907   2.751   0.000  11.998     0.002
  Ti             11     2.319   7.007   2.702   0.000  12.027    -0.027
  Ti             12     2.300   7.012   2.697   0.000  12.009    -0.009
  Ti             13     2.314   6.995   2.686   0.000  11.995     0.005
  Ti             14     2.327   6.954   2.717   0.000  11.998     0.002
  Ti             15     2.335   6.954   2.712   0.000  12.001    -0.001
  Ti             16     2.309   6.943   2.718   0.000  11.970     0.030
  Ti             17     2.316   7.011   2.700   0.000  12.027    -0.027
  Ti             18     2.323   6.973   2.715   0.000  12.011    -0.011
  Ti             19     2.318   7.005   2.696   0.000  12.019    -0.019
  Ti             20     2.326   6.917   2.722   0.000  11.965     0.035
  Ti             21     2.356   6.950   2.710   0.000  12.016    -0.016
  Ti             22     2.308   6.948   2.710   0.000  11.965     0.035
  Ti             23     2.307   6.969   2.710   0.000  11.986     0.014
  Ti             24     2.315   7.004   2.689   0.000  12.007    -0.007
  Ti             25     2.312   7.009   2.707   0.000  12.029    -0.029
  Ti             26     2.331   6.949   2.722   0.000  12.002    -0.002
  Ti             27     2.325   6.923   2.727   0.000  11.975     0.025
  Ti             28     2.329   6.956   2.713   0.000  11.998     0.002
  Ti             29     2.304   7.002   2.689   0.000  11.996     0.004
  Ti             30     2.332   6.971   2.715   0.000  12.018    -0.018
  Ti             31     2.313   7.013   2.690   0.000  12.016    -0.016
  Ti             32     2.319   6.972   2.686   0.000  11.978     0.022
  Ti             33     2.330   6.952   2.710   0.000  11.991     0.009
  Ti             34     2.313   6.982   2.693   0.000  11.988     0.012
  Ti             35     2.318   6.945   2.716   0.000  11.979     0.021
  Ti             36     2.326   6.969   2.710   0.000  12.005    -0.005
  Ti             37     2.316   7.015   2.691   0.000  12.021    -0.021
  Ti             38     2.323   6.973   2.698   0.000  11.994     0.006
  Ti             39     2.316   6.972   2.709   0.000  11.996     0.004
  Ti             40     2.314   6.925   2.720   0.000  11.959     0.041
  Ti             41     2.303   6.966   2.712   0.000  11.981     0.019
  Ti             42     2.330   6.977   2.716   0.000  12.023    -0.023
  Ti             43     2.315   6.974   2.708   0.000  11.997     0.003
  Ti             44     2.329   6.956   2.722   0.000  12.008    -0.008
  Ti             45     2.334   6.951   2.722   0.000  12.007    -0.007
  Ti             46     2.317   6.984   2.708   0.000  12.009    -0.009
  V               1     2.373   6.971   3.721   0.000  13.064    -0.064
  V               2     2.381   6.942   3.724   0.000  13.047    -0.047
==========================================================================

                 Bond                   Population      Length (A)
======================================================================
             Ti 16 -- V 1                    0.23        2.77280
             Ti 1  -- V 2                    0.20        2.77691
             Ti 41 -- V 2                    0.22        2.79395
              Al 1 -- Ti 5                   0.22        2.79712
             Ti 16 -- Ti 29                  0.16        2.79860
              Al 5 -- Al 6                   0.29        2.80035
              Al 1 -- Ti 1                   0.22        2.80620
              Al 4 -- Ti 40                  0.26        2.80846
             Ti 1  -- Ti 34                  0.21        2.81045
             Ti 35 -- Ti 36                  0.17        2.81186
              Al 1 -- V 1                    0.22        2.81368
              Al 1 -- Ti 40                  0.25        2.81393
             Ti 31 -- Ti 32                  0.15        2.81450
             Ti 22 -- Ti 33                  0.24        2.81481
             Ti 40 -- V 2                    0.17        2.81547
             Ti 1  -- V 1                    0.26        2.81614
             Ti 5  -- Ti 6                   0.13        2.81762
             Ti 7  -- Ti 38                  0.19        2.82092
             Ti 14 -- Ti 15                  0.14        2.82142
             Ti 5  -- V 2                    0.18        2.82290
             Ti 26 -- Ti 39                  0.16        2.82467
             Ti 34 -- V 2                    0.18        2.82504
             Ti 16 -- Ti 33                  0.17        2.82543
             Ti 23 -- Ti 33                  0.16        2.82595
              Al 3 -- Ti 34                  0.22        2.82688
             Ti 7  -- V 1                    0.18        2.82883
             Ti 9  -- Ti 36                  0.22        2.82959
             Ti 27 -- Ti 28                  0.16        2.82961
             Ti 1  -- Ti 7                   0.15        2.83072
              Al 1 -- Ti 23                  0.23        2.83132
             Ti 45 -- Ti 46                  0.14        2.83260
             Ti 14 -- Ti 31                  0.17        2.83324
             Ti 22 -- V 2                    0.27        2.83408
             Ti 40 -- V 1                    0.22        2.83412
              Al 2 -- Ti 33                  0.24        2.83450
              Al 2 -- Ti 22                  0.21        2.83538
             Ti 10 -- Ti 14                  0.20        2.83540
              Al 4 -- Ti 22                  0.24        2.83638
              Al 1 -- Ti 10                  0.24        2.83714
             Ti 15 -- Ti 46                  0.16        2.83727
             Ti 20 -- Ti 21                  0.22        2.83791
              Al 2 -- Ti 14                  0.21        2.83851
              Al 4 -- V 2                    0.22        2.84012
              Al 2 -- Ti 45                  0.24        2.84050
              Al 5 -- Ti 39                  0.23        2.84085
             Ti 11 -- V 1                    0.28        2.84109
             Ti 15 -- Ti 16                  0.16        2.84117
             Ti 23 -- V 1                    0.22        2.84119
              Al 5 -- Ti 35                  0.23        2.84166
             Ti 1  -- Ti 6                   0.16        2.84172
              Al 4 -- Ti 45                  0.26        2.84178
             Ti 9  -- Ti 10                  0.20        2.84281
             Ti 18 -- Ti 19                  0.17        2.84314
             Ti 20 -- Ti 31                  0.14        2.84394
             Ti 22 -- Ti 29                  0.16        2.84432
             Ti 11 -- Ti 16                  0.13        2.84467
              Al 6 -- Ti 46                  0.24        2.84487
             Ti 3  -- Ti 36                  0.14        2.84627
              Al 3 -- Ti 3                   0.21        2.84678
              Al 3 -- Ti 41                  0.22        2.84729
              Al 2 -- Ti 16                  0.23        2.84738
              Al 2 -- Ti 32                  0.23        2.84767
             Ti 37 -- Ti 46                  0.18        2.84788
             Ti 4  -- Ti 9                   0.24        2.84841
             Ti 12 -- Ti 29                  0.13        2.84884
             Ti 6  -- Ti 17                  0.20        2.84985
             Ti 23 -- Ti 28                  0.17        2.85036
             Ti 22 -- Ti 34                  0.14        2.85048
              Al 6 -- Ti 44                  0.26        2.85095
             Ti 2  -- Ti 3                   0.16        2.85131
             Ti 29 -- Ti 30                  0.15        2.85220
             Ti 29 -- Ti 33                  0.13        2.85248
             Ti 17 -- Ti 24                  0.15        2.85273
             Ti 11 -- Ti 12                  0.14        2.85277
             Ti 7  -- Ti 12                  0.22        2.85426
              Al 1 -- Ti 16                  0.25        2.85486
             Ti 28 -- Ti 37                  0.16        2.85683
             Ti 24 -- Ti 25                  0.14        2.85768
             Ti 17 -- Ti 28                  0.17        2.85866
             Ti 34 -- Ti 41                  0.19        2.85890
             Ti 6  -- Ti 11                  0.16        2.85955
              Al 5 -- Ti 44                  0.28        2.86135
             Ti 7  -- Ti 23                  0.14        2.86153
             Ti 42 -- Ti 43                  0.16        2.86182
              Al 5 -- Ti 10                  0.26        2.86194
              Al 4 -- Ti 36                  0.25        2.86210
             Ti 4  -- Ti 36                  0.22        2.86239
             Ti 17 -- Ti 29                  0.24        2.86428
             Ti 21 -- Ti 28                  0.18        2.86486
             Ti 33 -- Ti 41                  0.14        2.86494
             Ti 21 -- Ti 22                  0.20        2.86572
             Ti 18 -- Ti 30                  0.22        2.86589
             Ti 25 -- Ti 32                  0.16        2.86620
             Ti 11 -- Ti 37                  0.25        2.86625
             Ti 20 -- Ti 35                  0.17        2.86732
             Ti 2  -- Ti 17                  0.16        2.86734
             Ti 8  -- Ti 38                  0.16        2.86803
             Ti 45 -- V 2                    0.21        2.86809
             Ti 11 -- Ti 29                  0.23        2.86836
             Ti 17 -- Ti 18                  0.15        2.86888
              Al 4 -- Ti 5                   0.26        2.86896
              Al 1 -- Ti 27                  0.23        2.86937
             Ti 19 -- Ti 26                  0.17        2.87018
             Ti 27 -- Ti 32                  0.17        2.87057
             Ti 4  -- Ti 13                  0.15        2.87120
              Al 6 -- Ti 40                  0.25        2.87122
              Al 5 -- Ti 8                   0.20        2.87138
             Ti 25 -- Ti 30                  0.14        2.87187
              Al 3 -- Ti 1                   0.22        2.87190
             Ti 12 -- V 1                    0.18        2.87237
             Ti 2  -- Ti 11                  0.18        2.87258
             Ti 18 -- Ti 34                  0.17        2.87269
             Ti 10 -- Ti 40                  0.18        2.87277
              Al 3 -- Ti 43                  0.22        2.87332
             Ti 41 -- Ti 46                  0.17        2.87394
             Ti 32 -- Ti 43                  0.17        2.87398
             Ti 18 -- Ti 29                  0.15        2.87436
              Al 2 -- Ti 20                  0.24        2.87518
             Ti 41 -- Ti 42                  0.16        2.87523
             Ti 8  -- Ti 12                  0.15        2.87549
             Ti 36 -- Ti 43                  0.16        2.87670
             Ti 29 -- V 1                    0.22        2.87688
             Ti 14 -- Ti 44                  0.22        2.87713
              Al 4 -- Al 5                   0.23        2.87768
             Ti 34 -- Ti 40                  0.14        2.87774
             Ti 8  -- Ti 9                   0.13        2.87781
             Ti 26 -- Ti 27                  0.18        2.87806
             Ti 13 -- Ti 42                  0.14        2.87823
             Ti 12 -- Ti 13                  0.14        2.87831
             Ti 33 -- Ti 45                  0.17        2.87863
             Ti 39 -- Ti 44                  0.15        2.87892
             Ti 6  -- Ti 15                  0.16        2.87893
             Ti 25 -- Ti 26                  0.13        2.87898
             Ti 23 -- Ti 24                  0.17        2.87996
              Al 6 -- Ti 28                  0.22        2.88026
             Ti 3  -- Ti 19                  0.24        2.88082
             Ti 17 -- Ti 34                  0.26        2.88182
             Ti 13 -- Ti 31                  0.25        2.88225
             Ti 37 -- Ti 40                  0.15        2.88233
             Ti 11 -- Ti 46                  0.15        2.88320
              Al 4 -- Ti 20                  0.26        2.88372
             Ti 15 -- Ti 21                  0.29        2.88422
             Ti 13 -- Ti 14                  0.17        2.88477
             Ti 3  -- Ti 13                  0.26        2.88501
             Ti 19 -- Ti 24                  0.14        2.88508
              Al 5 -- Ti 36                  0.26        2.88514
              Al 5 -- Ti 26                  0.26        2.88522
             Ti 4  -- Ti 21                  0.15        2.88643
             Ti 3  -- Ti 4                   0.15        2.88679
             Ti 6  -- V 2                    0.24        2.88736
             Ti 3  -- Ti 9                   0.15        2.88823
              Al 4 -- Al 6                   0.22        2.88869
             Ti 13 -- Ti 19                  0.24        2.88895
             Ti 12 -- Ti 38                  0.22        2.88923
             Ti 44 -- Ti 45                  0.21        2.88956
             Ti 4  -- Ti 19                  0.15        2.88960
              Al 2 -- Ti 27                  0.26        2.88963
             Ti 1  -- Ti 41                  0.20        2.89001
              Al 2 -- Ti 15                  0.24        2.89008
              Al 1 -- Ti 6                   0.24        2.89053
             Ti 34 -- Ti 38                  0.15        2.89077
             Ti 14 -- Ti 32                  0.21        2.89164
             Ti 15 -- Ti 44                  0.16        2.89190
             Ti 35 -- Ti 38                  0.16        2.89200
             Ti 18 -- Ti 31                  0.16        2.89214
             Ti 1  -- Ti 23                  0.21        2.89220
             Ti 39 -- Ti 42                  0.14        2.89232
             Ti 11 -- Ti 42                  0.14        2.89250
             Ti 5  -- Ti 10                  0.21        2.89319
             Ti 3  -- Ti 7                   0.16        2.89320
             Ti 11 -- Ti 41                  0.27        2.89353
             Ti 9  -- Ti 27                  0.17        2.89355
             Ti 27 -- Ti 33                  0.17        2.89411
             Ti 8  -- Ti 39                  0.25        2.89424
             Ti 38 -- Ti 39                  0.13        2.89463
             Ti 9  -- Ti 25                  0.14        2.89477
             Ti 30 -- Ti 43                  0.15        2.89495
             Ti 5  -- Ti 36                  0.14        2.89521
              Al 3 -- Ti 35                  0.20        2.89550
             Ti 2  -- Ti 42                  0.21        2.89553
              Al 3 -- Ti 18                  0.26        2.89570
             Ti 9  -- Ti 26                  0.29        2.89575
              Al 3 -- Ti 42                  0.25        2.89641
             Ti 8  -- Ti 14                  0.15        2.89687
             Ti 14 -- Ti 20                  0.26        2.89808
              Al 3 -- Ti 2                   0.27        2.89827
             Ti 30 -- Ti 41                  0.17        2.89852
              Al 3 -- Ti 30                  0.25        2.89870
             Ti 18 -- Ti 35                  0.17        2.89914
             Ti 7  -- Ti 8                   0.15        2.89922
             Ti 4  -- Ti 5                   0.14        2.89936
              Al 6 -- Ti 26                  0.23        2.89986
             Ti 2  -- Ti 13                  0.14        2.90013
             Ti 2  -- Ti 19                  0.15        2.90050
             Ti 17 -- Ti 22                  0.16        2.90174
             Ti 24 -- Ti 37                  0.16        2.90180
             Ti 7  -- Ti 25                  0.16        2.90235
             Ti 13 -- Ti 44                  0.14        2.90283
             Ti 10 -- Ti 16                  0.16        2.90333
             Ti 8  -- Ti 13                  0.28        2.90384
             Ti 35 -- Ti 39                  0.22        2.90387
             Ti 30 -- Ti 42                  0.27        2.90468
             Ti 16 -- Ti 22                  0.16        2.90605
             Ti 10 -- Ti 27                  0.19        2.90653
             Ti 3  -- Ti 43                  0.23        2.90657
             Ti 6  -- Ti 28                  0.22        2.90674
             Ti 4  -- Ti 14                  0.21        2.90809
             Ti 8  -- Ti 31                  0.23        2.90828
             Ti 37 -- Ti 38                  0.13        2.90845
             Ti 35 -- Ti 43                  0.25        2.90861
             Ti 4  -- Ti 15                  0.13        2.90895
             Ti 32 -- Ti 45                  0.17        2.90981
             Ti 26 -- Ti 32                  0.27        2.91007
             Ti 1  -- Ti 2                   0.18        2.91110
              Al 3 -- Ti 38                  0.26        2.91161
              Al 2 -- Ti 10                  0.25        2.91288
             Ti 23 -- Ti 30                  0.15        2.91303
             Ti 3  -- Ti 35                  0.23        2.91304
             Ti 9  -- Ti 32                  0.24        2.91316
             Ti 12 -- Ti 31                  0.14        2.91556
             Ti 8  -- Ti 35                  0.23        2.91594
             Ti 25 -- Ti 31                  0.25        2.91614
             Ti 6  -- Ti 21                  0.16        2.91625
             Ti 33 -- Ti 46                  0.28        2.91677
              Al 1 -- Ti 28                  0.22        2.91730
              Al 2 -- Ti 21                  0.24        2.91807
             Ti 20 -- Ti 32                  0.27        2.91814
             Ti 30 -- Ti 31                  0.12        2.91823
              Al 6 -- Ti 27                  0.27        2.91914
             Ti 10 -- Ti 15                  0.25        2.91974
             Ti 5  -- Ti 9                   0.11        2.91986
             Ti 19 -- Ti 25                  0.25        2.91993
              Al 4 -- Ti 21                  0.27        2.92148
             Ti 5  -- Ti 45                  0.20        2.92152
             Ti 24 -- Ti 39                  0.13        2.92219
             Ti 25 -- Ti 39                  0.24        2.92277
             Ti 38 -- V 1                    0.16        2.92293
             Ti 37 -- V 1                    0.28        2.92335
             Ti 36 -- Ti 45                  0.22        2.92562
             Ti 12 -- Ti 42                  0.24        2.92678
              Al 1 -- V 2                    0.23        2.92699
             Ti 21 -- Ti 26                  0.15        2.92742
             Ti 19 -- Ti 31                  0.25        2.92773
             Ti 19 -- Ti 20                  0.15        2.92839
              Al 6 -- Ti 21                  0.27        2.92929
             Ti 12 -- Ti 30                  0.24        2.93065
             Ti 43 -- Ti 44                  0.15        2.93309
             Ti 23 -- Ti 29                  0.24        2.93310
             Ti 29 -- Ti 34                  0.21        2.93339
             Ti 20 -- Ti 26                  0.24        2.93391
             Ti 37 -- Ti 42                  0.12        2.93453
              Al 3 -- Ti 7                   0.23        2.93476
             Ti 4  -- Ti 26                  0.24        2.93542
             Ti 46 -- V 2                    0.23        2.93555
              Al 6 -- Ti 10                  0.27        2.93619
             Ti 2  -- Ti 12                  0.22        2.93822
              Al 5 -- Ti 20                  0.25        2.93852
             Ti 4  -- Ti 44                  0.24        2.93890
             Ti 31 -- Ti 43                  0.25        2.93920
             Ti 13 -- Ti 43                  0.27        2.94041
             Ti 28 -- Ti 33                  0.26        2.94108
             Ti 18 -- Ti 24                  0.25        2.94177
             Ti 20 -- Ti 36                  0.25        2.94342
             Ti 8  -- Ti 25                  0.25        2.94546
              Al 1 -- Ti 33                  0.23        2.94573
             Ti 27 -- Ti 45                  0.17        2.94660
              Al 4 -- Ti 10                  0.26        2.94708
             Ti 39 -- Ti 43                  0.25        2.94846
             Ti 22 -- Ti 40                  0.20        2.94879
             Ti 34 -- Ti 37                  0.26        2.94930
             Ti 24 -- Ti 38                  0.25        2.95062
             Ti 28 -- Ti 46                  0.25        2.95238
             Ti 5  -- Ti 15                  0.23        2.95279
             Ti 21 -- Ti 27                  0.26        2.95300
             Ti 24 -- Ti 42                  0.27        2.95311
             Ti 38 -- Ti 42                  0.29        2.95341
             Ti 24 -- Ti 30                  0.29        2.95412
             Ti 33 -- V 2                    0.30        2.95422
             Ti 26 -- Ti 44                  0.25        2.95504
             Ti 37 -- Ti 41                  0.22        2.95510
             Ti 17 -- Ti 37                  0.26        2.95684
             Ti 12 -- Ti 18                  0.18        2.95815
             Ti 4  -- Ti 20                  0.21        2.95819
             Ti 25 -- Ti 43                  0.24        2.95901
             Ti 5  -- Ti 27                  0.21        2.96124
             Ti 3  -- Ti 25                  0.23        2.96222
             Ti 13 -- Ti 39                  0.26        2.96489
             Ti 17 -- Ti 23                  0.25        2.96554
              Al 2 -- Al 4                   0.17        2.96706
             Ti 2  -- Ti 18                  0.26        2.96862
             Ti 2  -- Ti 7                   0.24        2.96907
             Ti 19 -- Ti 35                  0.28        2.96958
             Ti 6  -- Ti 46                  0.22        2.97016
             Ti 5  -- Ti 21                  0.26        2.97178
             Ti 16 -- Ti 40                  0.17        2.97190
             Ti 19 -- Ti 39                  0.25        2.97323
             Ti 3  -- Ti 8                   0.26        2.97358
             Ti 18 -- Ti 38                  0.22        2.97915
             Ti 2  -- Ti 24                  0.25        2.97919
              Al 5 -- Ti 9                   0.25        2.98094
             Ti 7  -- Ti 24                  0.23        2.98977
              Al 5 -- Ti 14                  0.23        2.99053
             Ti 7  -- Ti 30                  0.28        2.99393
             Ti 32 -- Ti 44                  0.30        2.99522
             Ti 23 -- Ti 37                  0.24        2.99700
======================================================================

 
 A BibTeX formatted list of references used in this run has been written to 
 sqs_hcp_sc3x3x3_Ti46Al6V2_frame0_13.bib
 
Initialisation time =     19.42 s
Calculation time    =   2305.49 s
Finalisation time   =      0.31 s
Total time          =   2325.22 s
Peak Memory Use     = 1906620 kB
 
Overall parallel efficiency rating: Mediocre (56%)
 
Data was distributed by:-
G-vector (24-way); efficiency rating: Mediocre (56%)
k-point (14-way); efficiency rating: Excellent (97%)
