 +-------------------------------------------------+
 |                                                 |
 |      CCC   AA    SSS  TTTTT  EEEEE  PPPP        |
 |     C     A  A  S       T    E      P   P       |
 |     C     AAAA   SS     T    EEE    PPPP        |
 |     C     A  A     S    T    E      P           |
 |      CCC  A  A  SSS     T    EEEEE  P           |
 |                                                 |
 +-------------------------------------------------+
 |                                                 |
 | Welcome to Academic Release CASTEP version 24.1 |
 | Ab Initio Total Energy Program                  |
 |                                                 |
 | Authors:                                        |
 | M. Segall, M. Probert, C. Pickard, P. Hasnip,   |
 | S. Clark, K. Refson, J. R. Yates,               |
 | A. Bartok-Partay, M. Payne                      |
 |                                                 |
 | Contributors:                                   |
 | P. Lindan, P. Haynes, J. White, V. Milman,      |
 | N. Govind, M. Gibson, P. Tulip, V. Cocula,      |
 | B. Montanari, D. Quigley, M. Glover,            |
 | L. Bernasconi, A. Perlov, M. Plummer,           |
 | E. McNellis, J. Meyer, J. Gale, D. Jochym       |
 | J. Aarons, B. Walker, R. Gillen, D. Jones       |
 | T. Green, I. J. Bush, C. J. Armstrong,          |
 | E. J. Higgins, E. L. Brown, M. S. McFly,        |
 | J. Wilkins, B-C. Shih, P. J. P. Byrne,          |
 | R. J. Maurer, J. C. Womack, J. Dziedzic,        |
 | L. LeBlanc, T. K. Stenczel, J. Kermode,         |
 | S. Sturniolo, B. Shi, B. Durham, M. Evans,      |
 | M. J. Smith, A. Tamerus, Z. Hawkhead,           |
 | V. Ravindran, T. Hollins, S. A. Joyce,          |
 | R. T. Strong, A. M. Reilly                      |
 |                                                 |
 | Copyright (c) 2000 - 2023                       |
 |                                                 |
 |     Distributed under license from Cambridge    |
 |     Enterprise for academic use only.           |
 |                                                 |
 | Please cite                                     |
 |                                                 |
 |     "First principles methods using CASTEP"     |
 |                                                 |
 |         Zeitschrift fuer Kristallographie       |
 |           220(5-6) pp. 567-570 (2005)           |
 |                                                 |
 | S. J. Clark, M. D. Segall, C. J. Pickard,       |
 | P. J. Hasnip, M. J. Probert, K. Refson,         |
 | M. C. Payne                                     |
 |                                                 |
 |       in all publications arising from          |
 |              your use of CASTEP                 |
 |                                                 |
 +-------------------------------------------------+
 |                                                 |
 |              http://www.castep.org              |
 |                                                 |
 +-------------------------------------------------+



 Compiled for linux_x86_64_gfortran10 on Tue, 02 May 2023 15:31:46 +0100
 from code version db08e394c+  default  Mon May 1 16:40:39 2023 +0100
 Compiler: GNU Fortran 10.2.0; Optimisation: fast
 Comms   : Open MPI v4.0.5
 MATHLIBS: openblas (LAPACK version 3.9.0)
 FFT Lib : fftw3 version fftw-3.3.8-sse2-avx-avx2-avx2_128
 Fundamental constants values: CODATA 2018

 Run started: Wed, 07 Feb 2024 20:51:54 +0000
 Info: number of up-spin electrons is not equal to the
       number of down-spins but spin_polarized=false
     - consider setting spin_polarized=true.

 Atomic calculation performed for Al: 1s2 2s2 2p6 3s2 3p1

 Converged in 54 iterations to an ae energy of -6603.783 eV

   ============================================================                
   | Pseudopotential Report - Date of generation  7-02-2024   |                
   ------------------------------------------------------------                
   | Element: Al Ionic charge:  3.00 Level of theory: PBE     |                
   | Atomic Solver: Koelling-Harmon                           |                
   |                                                          |                
   |               Reference Electronic Structure             |                
   |         Orbital         Occupation         Energy        |                
   |            3s              2.000           -0.285        |                
   |            3p              1.000           -0.100        |                
   |                                                          |                
   |                 Pseudopotential Definition               |                
   |        Beta     l      e      Rc     scheme   norm       |                
   |          1      0   -0.285   2.192     qc      0         |                
   |          2      0    0.250   2.192     qc      0         |                
   |          3      1   -0.100   2.192     qc      0         |                
   |          4      1    0.250   2.192     qc      0         |                
   |          5      2    0.000   2.000     qc      0         |                
   |          6      2    0.250   2.000     qc      0         |                
   |         loc     3    0.000   2.192     pn      0         |                
   |                                                          |                
   | Augmentation charge Rinner = 1.398                       |                
   | Partial core correction Rc = 1.398                       |                
   ------------------------------------------------------------                
   | "3|2.2|2.2|1.4|4|5|5|30:31:32U2U2"                       |                
   ------------------------------------------------------------                
   |      Author: Chris J. Pickard, Cambridge University      |                
   ============================================================                

 Atomic calculation performed for Ti: 1s2 2s2 2p6 3s2 3p6 3d2 4s2

 Converged in 79 iterations to an ae energy of -23226.658 eV

   ============================================================                
   | Pseudopotential Report - Date of generation  7-02-2024   |                
   ------------------------------------------------------------                
   | Element: Ti Ionic charge: 12.00 Level of theory: PBE     |                
   | Atomic Solver: Koelling-Harmon                           |                
   |                                                          |                
   |               Reference Electronic Structure             |                
   |         Orbital         Occupation         Energy        |                
   |            3s              2.000           -2.302        |                
   |            3p              6.000           -1.428        |                
   |            4s              2.000           -0.164        |                
   |            3d              2.000           -0.157        |                
   |                                                          |                
   |                 Pseudopotential Definition               |                
   |        Beta     l      e      Rc     scheme   norm       |                
   |          1      0   -2.302   1.793     qc      0         |                
   |          2      0   -0.164   1.793     qc      0         |                
   |          3      0    0.250   1.793     qc      0         |                
   |          4      1   -1.428   1.793     qc      0         |                
   |          5      1    0.250   1.793     qc      0         |                
   |          6      2   -0.157   1.793     qc      0         |                
   |          7      2    0.250   1.793     qc      0         |                
   |         loc     3    0.000   1.793     pn      0         |                
   |                                                          |                
   | Augmentation charge Rinner = 1.263                       |                
   | Partial core correction Rc = 1.263                       |                
   ------------------------------------------------------------                
   | "3|1.8|9|10|11|30U:40:31:32(qc=5.5)"                     |                
   ------------------------------------------------------------                
   |      Author: Chris J. Pickard, Cambridge University      |                
   ============================================================                

 Atomic calculation performed for V: 1s2 2s2 2p6 3s2 3p6 3d3 4s2

 Converged in 81 iterations to an ae energy of -25823.733 eV

   ============================================================                
   | Pseudopotential Report - Date of generation  7-02-2024   |                
   ------------------------------------------------------------                
   | Element: V Ionic charge: 13.00 Level of theory: PBE      |                
   | Atomic Solver: Koelling-Harmon                           |                
   |                                                          |                
   |               Reference Electronic Structure             |                
   |         Orbital         Occupation         Energy        |                
   |            3s              2.000           -2.581        |                
   |            3p              6.000           -1.618        |                
   |            3d              3.000           -0.190        |                
   |            4s              2.000           -0.173        |                
   |                                                          |                
   |                 Pseudopotential Definition               |                
   |        Beta     l      e      Rc     scheme   norm       |                
   |          1      0   -2.581   1.803     qc      0         |                
   |          2      0   -0.173   1.803     qc      0         |                
   |          3      0    0.250   1.803     qc      0         |                
   |          4      1   -1.618   1.803     qc      0         |                
   |          5      1    0.250   1.803     qc      0         |                
   |          6      2   -0.190   1.803     qc      0         |                
   |          7      2    0.250   1.803     qc      0         |                
   |         loc     3    0.000   1.803     pn      0         |                
   |                                                          |                
   | Augmentation charge Rinner = 0.600                       |                
   | Partial core correction Rc = 0.600                       |                
   ------------------------------------------------------------                
   | "3|1.8|1.8|0.6|12|14|16|30U:40:31:32(qc=7)"              |                
   ------------------------------------------------------------                
   |      Author: Chris J. Pickard, Cambridge University      |                
   ============================================================                

 Pseudo atomic calculation performed for Al 3s2 3p1

 Converged in 15 iterations to a total energy of -107.1308 eV

 Pseudo atomic calculation performed for Ti 3s2 3p6 3d2 4s2

 Converged in 34 iterations to a total energy of -1587.0236 eV

 Pseudo atomic calculation performed for V 3s2 3p6 3d3 4s2

 Converged in 35 iterations to a total energy of -2065.7874 eV
 Calculation parallelised over 240 processes.
 Data is distributed by G-vector(16-way) and k-point(15-way)

 ************************************ Title ************************************
 

 ***************************** General Parameters ******************************
  
 output verbosity                               : normal  (1)
 write checkpoint data to                       : sqs_hex_sc3x3x3_Ti70Al8V3_frame0_18.check
 type of calculation                            : single point energy
 stress calculation                             : on
 density difference calculation                 : off
 electron localisation func (ELF) calculation   : off
 Hirshfeld analysis                             : off
 polarisation (Berry phase) analysis            : off
 molecular orbital projected DOS                : off
 deltaSCF calculation                           : off
 unlimited duration calculation
 timing information                             : on
 memory usage estimate                          : on
 write extra output files                       : on
 write final potential to formatted file        : off
 write final density to formatted file          : off
 write BibTeX reference list                    : on
 write OTFG pseudopotential files               : on
 write electrostatic potential file             : on
 write bands file                               : on
 checkpoint writing                             : off
  
 output         length unit                     : A
 output           mass unit                     : amu
 output           time unit                     : ps
 output         charge unit                     : e
 output           spin unit                     : hbar/2
 output         energy unit                     : eV
 output          force unit                     : eV/A
 output       velocity unit                     : A/ps
 output       pressure unit                     : GPa
 output     inv_length unit                     : 1/A
 output      frequency unit                     : cm-1
 output force constant unit                     : eV/A**2
 output         volume unit                     : A**3
 output   IR intensity unit                     : (D/A)**2/amu
 output         dipole unit                     : D
 output         efield unit                     : eV/A/e
 output        entropy unit                     : J/mol/K
 output    efield chi2 unit                     : pm/V
  
 wavefunctions paging                           : none
 random number generator seed                   :  205154654
 data distribution                              : k-point only
 optimization strategy                          : maximize speed(+++)

 *********************** Exchange-Correlation Parameters ***********************
  
 using functional                               : Perdew Burke Ernzerhof
 relativistic treatment                         : Koelling-Harmon
 DFT+D: Semi-empirical dispersion correction    : off

 ************************* Pseudopotential Parameters **************************
  
 pseudopotential representation                 : reciprocal space
 <beta|phi> representation                      : reciprocal space
 spin-orbit coupling                            : off

 **************************** Basis Set Parameters *****************************
  
 plane wave basis set cut-off                   :   800.0000   eV
 size of standard grid                          :     2.0000
 size of   fine   gmax                          :    28.9810   1/A
 largest prime factor in FFT                    :          5
 finite basis set correction                    : automatic
 number of sample energies                      :          3
           sample  spacing                      :     5.0000   eV

 **************************** Electronic Parameters ****************************
  
 number of  electrons                           :  903.0    
 net charge of system                           :  0.000    
 treating system as non-spin-polarized
 number of bands                                :        487

 ********************* Electronic Minimization Parameters **********************
  
 Method: Treating system as metallic with density mixing treatment of electrons,
         and number of  SD  steps               :          1
         and number of  CG  steps               :          4
  
 total energy / atom convergence tol.           : 0.1000E-05   eV
 eigen-energy convergence tolerance             : 0.1663E-06   eV
 max force / atom convergence tol.              : ignored
 convergence tolerance window                   :          3   cycles
 max. number of SCF cycles                      :         30
 number of fixed-spin iterations                :         10
 smearing scheme                                : Gaussian
 smearing width                                 : 0.5000E-01   eV
 Fermi energy convergence tolerance             : 0.2721E-13   eV
 periodic dipole correction                     : NONE

 ************************** Density Mixing Parameters **************************
  
 density-mixing scheme                          : Pulay
 max. length of mixing history                  :         20
 charge density mixing amplitude                : 0.8000    
 cut-off energy for mixing                      :  800.0       eV
 charge density mixing g-vector                 :  1.500       1/A

 *********************** Population Analysis Parameters ************************
  
 Population analysis with cutoff                :  3.000       A
 Population analysis output                     : summary and pdos components

 ******************************* Developer Code ********************************
  
 PARALLEL: kpoint=15 : ENDPARALLEL
 no_improve_wvfn

 *******************************************************************************
  

                           -------------------------------
                                      Unit Cell
                           -------------------------------
        Real Lattice(A)                      Reciprocal Lattice(1/A)
     6.8351780   -11.8388760    -0.0591350        0.459621187  -0.265368984   0.001315858
     6.8351780    11.8388760     0.0591750        0.459621195   0.265368971  -0.001313278
    -0.0000240     0.0423510     8.5493030       -0.000002151  -0.003672323   0.734953579

                       Lattice parameters(A)       Cell Angles
                    a =     13.670484          alpha =   89.506266
                    b =     13.670484          beta  =   90.493727
                    c =      8.549408          gamma =  120.000621

                       Current cell volume =          1383.599052       A**3
                                   density =             2.688183   AMU/A**3
                                           =             4.463832     g/cm^3

                           -------------------------------
                                     Cell Contents
                           -------------------------------
                         Total number of ions in cell =   81
                      Total number of species in cell =    3
                        Max number of any one species =   70

            xxxxxxxxxxxxxxxxxxxxxxxxxxxxxxxxxxxxxxxxxxxxxxxxxxxxxxxxxxxx
            x  Element    Atom        Fractional coordinates of atoms  x
            x            Number           u          v          w      x
            x----------------------------------------------------------x
            x  Al           1        -0.000247  -0.001326   0.330733   x 
            x  Al           2         0.561171   0.117172   0.794242   x 
            x  Al           3         0.552346   0.444073   0.652557   x 
            x  Al           4         0.560953   0.442024   0.973541   x 
            x  Al           5         0.336101   0.664673  -0.004848   x 
            x  Al           6         0.557634   0.777502   0.155799   x 
            x  Al           7         0.450688   0.900541   0.839547   x 
            x  Al           8         0.779252   0.889231   0.832163   x 
            x  Ti           1        -0.001779  -0.002587  -0.003597   x 
            x  Ti           2         0.108549   0.219909   0.163498   x 
            x  Ti           3         0.222498   0.110493   0.162162   x 
            x  Ti           4         0.106828   0.220019   0.497345   x 
            x  Ti           5         0.221687   0.110436   0.495743   x 
            x  Ti           6        -0.001662  -0.002396   0.665211   x 
            x  Ti           7         0.108640   0.218419   0.830768   x 
            x  Ti           8         0.224869   0.111682   0.829381   x 
            x  Ti           9         0.003632   0.336991  -0.002433   x 
            x  Ti          10         0.115427   0.556488   0.162964   x 
            x  Ti          11         0.225239   0.444777   0.164822   x 
            x  Ti          12         0.002551   0.334690   0.332524   x 
            x  Ti          13         0.112660   0.557161   0.495839   x 
            x  Ti          14         0.223460   0.446833   0.499970   x 
            x  Ti          15        -0.000455   0.335350   0.666586   x 
            x  Ti          16         0.109243   0.556232   0.829239   x 
            x  Ti          17         0.221769   0.444388   0.831850   x 
            x  Ti          18         0.000365   0.665542  -0.004249   x 
            x  Ti          19         0.112536   0.889715   0.162442   x 
            x  Ti          20         0.217888   0.775277   0.164047   x 
            x  Ti          21        -0.005464   0.664090   0.328735   x 
            x  Ti          22         0.113142   0.888943   0.494455   x 
            x  Ti          23         0.221125   0.776339   0.492681   x 
            x  Ti          24        -0.004545   0.664505   0.663284   x 
            x  Ti          25         0.109696   0.888687   0.827867   x 
            x  Ti          26         0.224622   0.779543   0.828082   x 
            x  Ti          27         0.333992   0.000309  -0.006320   x 
            x  Ti          28         0.451283   0.234852   0.159903   x 
            x  Ti          29         0.556528   0.110575   0.142310   x 
            x  Ti          30         0.336418   0.005066   0.326601   x 
            x  Ti          31         0.452068   0.236456   0.487518   x 
            x  Ti          32         0.334858   0.002202   0.659143   x 
            x  Ti          33         0.451035   0.232520   0.825347   x 
            x  Ti          34         0.325672   0.330257  -0.001417   x 
            x  Ti          35         0.451406   0.548786   0.155394   x 
            x  Ti          36         0.558241   0.447419   0.310247   x 
            x  Ti          37         0.320581   0.326511   0.328374   x 
            x  Ti          38         0.449629   0.546337   0.489433   x 
            x  Ti          39         0.321492   0.327665   0.659526   x 
            x  Ti          40         0.449650   0.548696   0.821232   x 
            x  Ti          41         0.439522   0.885989   0.165315   x 
            x  Ti          42         0.335897   0.666633   0.329957   x 
            x  Ti          43         0.446670   0.896220   0.507807   x 
            x  Ti          44         0.552530   0.775180   0.482160   x 
            x  Ti          45         0.337370   0.669584   0.661591   x 
            x  Ti          46         0.554897   0.777830   0.828963   x 
            x  Ti          47         0.667139  -0.002828  -0.004772   x 
            x  Ti          48         0.780331   0.221598   0.168313   x 
            x  Ti          49         0.888455   0.112281   0.165778   x 
            x  Ti          50         0.662668  -0.004470   0.329432   x 
            x  Ti          51         0.770173   0.217601   0.500950   x 
            x  Ti          52         0.886936   0.114703   0.494753   x 
            x  Ti          53         0.667112  -0.005315   0.663059   x 
            x  Ti          54         0.782897   0.225112   0.839423   x 
            x  Ti          55         0.889225   0.112704   0.830038   x 
            x  Ti          56         0.769794   0.544721   0.135186   x 
            x  Ti          57         0.892755   0.443330   0.164231   x 
            x  Ti          58         0.671932   0.327119   0.321028   x 
            x  Ti          59         0.762578   0.547571   0.485135   x 
            x  Ti          60         0.888702   0.444169   0.500467   x 
            x  Ti          61         0.669707   0.333575   0.663686   x 
            x  Ti          62         0.877221   0.448702   0.837333   x 
            x  Ti          63         0.671184   0.674149  -0.005626   x 
            x  Ti          64         0.782764   0.892879   0.161762   x 
            x  Ti          65         0.888461   0.774609   0.169204   x 
            x  Ti          66         0.675867   0.682590   0.325152   x 
            x  Ti          67         0.781058   0.892616   0.504270   x 
            x  Ti          68         0.889891   0.775228   0.499151   x 
            x  Ti          69         0.670677   0.675987   0.657990   x 
            x  Ti          70         0.885427   0.769594   0.834433   x 
            x  V            1         0.552039   0.117615   0.474329   x 
            x  V            2         0.663753   0.316479  -0.004301   x 
            x  V            3         0.761099   0.553177   0.803565   x 
            xxxxxxxxxxxxxxxxxxxxxxxxxxxxxxxxxxxxxxxxxxxxxxxxxxxxxxxxxxxx


                         No user defined ionic velocities

                           -------------------------------
                                   Details of Species
                           -------------------------------

                               Mass of species in AMU
                                    Al   26.9815400
                                    Ti   47.8670000
                                    V   50.9415000

                          Electric Quadrupole Moment (Barn)
                                    Al    0.1466000 Isotope 27
                                    Ti    0.3020000 Isotope 47
                                    V   -0.0520000 Isotope 51

                          Files used for pseudopotentials:
                                    Al 3|2.2|2.2|1.4|4|5|5|30:31:32U2U2
                                    Ti 3|1.8|9|10|11|30U:40:31:32(qc=5.5)
                                    V 3|1.8|1.8|0.6|12|14|16|30U:40:31:32(qc=7)

                           -------------------------------
                              k-Points For BZ Sampling
                           -------------------------------
                       MP grid size for SCF calculation is  5  5  6
                            with an offset of   0.000  0.000  0.000
                       Number of kpoints used =            75

                           -------------------------------
                               Symmetry and Constraints
                           -------------------------------

                      Maximum deviation from symmetry =  0.00000         ANG

                      Number of symmetry operations   =           1
                      Number of ionic constraints     =           3
                      Point group of crystal =     1: C1, 1, 1
                      Space group of crystal =     1: P1, P 1

             Set iprint > 1 for details on symmetry rotations/translations

                         Centre of mass is constrained
             Set iprint > 1 for details of linear ionic constraints

                         Number of cell constraints= 0
                         Cell constraints are:  1 2 3 4 5 6

                         External pressure/stress (GPa)
                          0.00000   0.00000   0.00000
                                    0.00000   0.00000
                                              0.00000
 
+---------------- MEMORY AND SCRATCH DISK ESTIMATES PER PROCESS --------------+
|                                                     Memory          Disk    |
| Baseline code, static data and system overhead      591.0 MB         0.0 MB |
| BLAS internal memory storage                          0.0 MB         0.0 MB |
| Model and support data                              929.3 MB         0.0 MB |
| Electronic energy minimisation requirements         445.3 MB         0.0 MB |
| Force calculation requirements                       15.9 MB         0.0 MB |
| Stress calculation requirements                      17.2 MB         0.0 MB |
|                                               ----------------------------- |
| Approx. total storage required per process         1965.6 MB         0.0 MB |
|                                                                             |
| Requirements will fluctuate during execution and may exceed these estimates |
+-----------------------------------------------------------------------------+
Calculating finite basis set correction with  3 cut-off energies.
Calculating total energy with cut-off of  790.000 eV.
------------------------------------------------------------------------ <-- SCF
SCF loop      Energy           Fermi           Energy gain       Timer   <-- SCF
                               energy          per atom          (sec)   <-- SCF
------------------------------------------------------------------------ <-- SCF
Initial  -1.06776634E+005  0.00000000E+000                        34.55  <-- SCF
      1  -1.15653081E+005  1.18170005E+001   1.09585766E+002     229.95  <-- SCF
      2  -1.18523691E+005  9.11569308E+000   3.54396284E+001     392.03  <-- SCF
      3  -1.18686559E+005  8.89553882E+000   2.01070907E+000     557.85  <-- SCF
      4  -1.18710665E+005  8.06082553E+000   2.97606761E-001     754.18  <-- SCF
      5  -1.18694952E+005  8.28216772E+000  -1.93979005E-001     954.86  <-- SCF
      6  -1.18687937E+005  8.45084050E+000  -8.66147335E-002    1147.78  <-- SCF
      7  -1.18682894E+005  8.47212069E+000  -6.22501097E-002    1348.19  <-- SCF
      8  -1.18684091E+005  8.41878120E+000   1.47706876E-002    1542.88  <-- SCF
      9  -1.18682802E+005  8.41752345E+000  -1.59140058E-002    1725.40  <-- SCF
     10  -1.18682550E+005  8.40040352E+000  -3.11094470E-003    1914.77  <-- SCF
     11  -1.18682634E+005  8.39518388E+000   1.03534668E-003    2106.58  <-- SCF
     12  -1.18682552E+005  8.39184422E+000  -1.00542505E-003    2283.88  <-- SCF
     13  -1.18682533E+005  8.39259735E+000  -2.33639017E-004    2471.18  <-- SCF
     14  -1.18682534E+005  8.39299012E+000   8.90053354E-006    2654.09  <-- SCF
     15  -1.18682532E+005  8.39297471E+000  -2.81115391E-005    2812.43  <-- SCF
     16  -1.18682532E+005  8.39299475E+000   3.46344262E-006    2967.90  <-- SCF
     17  -1.18682532E+005  8.39311797E+000  -3.47493330E-006    3108.27  <-- SCF
     18  -1.18682532E+005  8.39312251E+000   1.02343147E-008    3217.10  <-- SCF
     19  -1.18682532E+005  8.39311357E+000  -5.20597739E-008    3325.74  <-- SCF
------------------------------------------------------------------------ <-- SCF
 
Final energy, E             =  -118682.4206531     eV
Final free energy (E-TS)    =  -118682.5317428     eV
(energies not corrected for finite basis set)
 
NB est. 0K energy (E-0.5TS)      =  -118682.4761979     eV
 
Calculating total energy with cut-off of  795.000 eV.
------------------------------------------------------------------------ <-- SCF
SCF loop      Energy           Fermi           Energy gain       Timer   <-- SCF
                               energy          per atom          (sec)   <-- SCF
------------------------------------------------------------------------ <-- SCF
Initial  -1.18682421E+005  0.00000000E+000                      3356.72  <-- SCF
      1  -1.18682534E+005  8.39319638E+000   1.40308784E-003    3500.57  <-- SCF
      2  -1.18682535E+005  8.39319487E+000   3.54124675E-006    3650.39  <-- SCF
      3  -1.18682572E+005  8.39180804E+000   4.68205145E-004    3834.18  <-- SCF
      4  -1.18682534E+005  8.39361326E+000  -4.71815602E-004    4012.41  <-- SCF
      5  -1.18682533E+005  8.39313333E+000  -1.57852322E-005    4179.18  <-- SCF
      6  -1.18682533E+005  8.39317084E+000   3.23803134E-006    4327.26  <-- SCF
      7  -1.18682533E+005  8.39308531E+000  -5.75843667E-007    4442.80  <-- SCF
      8  -1.18682533E+005  8.39307666E+000  -2.28169061E-007    4550.34  <-- SCF
------------------------------------------------------------------------ <-- SCF
 
Final energy, E             =  -118682.4220914     eV
Final free energy (E-TS)    =  -118682.5331685     eV
(energies not corrected for finite basis set)
 
NB est. 0K energy (E-0.5TS)      =  -118682.4776299     eV
 
Calculating total energy with cut-off of  800.000 eV.
------------------------------------------------------------------------ <-- SCF
SCF loop      Energy           Fermi           Energy gain       Timer   <-- SCF
                               energy          per atom          (sec)   <-- SCF
------------------------------------------------------------------------ <-- SCF
Initial  -1.18682422E+005  0.00000000E+000                      4581.26  <-- SCF
      1  -1.18682544E+005  8.39300597E+000   1.50536499E-003    4754.18  <-- SCF
      2  -1.18682544E+005  8.39300231E+000   3.39635402E-006    4900.56  <-- SCF
      3  -1.18682773E+005  8.39137329E+000   2.82392239E-003    5088.20  <-- SCF
      4  -1.18682534E+005  8.39523716E+000  -2.94257169E-003    5269.41  <-- SCF
      5  -1.18682534E+005  8.39315797E+000  -6.14077125E-006    5438.42  <-- SCF
      6  -1.18682535E+005  8.39320533E+000   1.44963456E-005    5607.50  <-- SCF
      7  -1.18682535E+005  8.39300000E+000  -4.10955156E-006    5760.11  <-- SCF
      8  -1.18682535E+005  8.39302141E+000  -2.79944837E-006    5890.57  <-- SCF
      9  -1.18682535E+005  8.39306799E+000  -1.40852293E-007    6000.27  <-- SCF
     10  -1.18682535E+005  8.39310029E+000  -1.99420951E-007    6107.79  <-- SCF
------------------------------------------------------------------------ <-- SCF
 
Final energy, E             =  -118682.4234465     eV
Final free energy (E-TS)    =  -118682.5345314     eV
(energies not corrected for finite basis set)
 
NB est. 0K energy (E-0.5TS)      =  -118682.4789889     eV
 
 For future reference: finite basis dEtot/dlog(Ecut) =      -0.221861eV
 Total energy corrected for finite basis set = -118682.534530 eV

 ************************** Forces **************************
 *                                                          *
 *               Cartesian components (eV/A)                *
 * -------------------------------------------------------- *
 *                         x            y            z      *
 *                                                          *
 * Al              1      0.02471      0.02798      0.00756 *
 * Al              2     -0.21023     -0.05052      0.06182 *
 * Al              3      0.09291     -0.00734     -0.00539 *
 * Al              4      0.01314      0.05823     -0.00775 *
 * Al              5     -0.04140      0.01580     -0.04693 *
 * Al              6     -0.05779      0.05618     -0.02334 *
 * Al              7     -0.13000     -0.13847      0.14743 *
 * Al              8     -0.00617      0.04679      0.04289 *
 * Ti              1      0.04405     -0.06521      0.07608 *
 * Ti              2     -0.11793      0.02888      0.02602 *
 * Ti              3      0.05214     -0.04544     -0.00998 *
 * Ti              4     -0.08534      0.01478     -0.03540 *
 * Ti              5     -0.00270      0.01558     -0.05288 *
 * Ti              6      0.03455     -0.00454     -0.07681 *
 * Ti              7     -0.03294      0.08492      0.00043 *
 * Ti              8      0.07744     -0.02338      0.00288 *
 * Ti              9      0.03020     -0.03869     -0.04499 *
 * Ti             10      0.00704      0.04725      0.01506 *
 * Ti             11      0.07209     -0.04469     -0.03983 *
 * Ti             12     -0.04858      0.02929     -0.00788 *
 * Ti             13     -0.02733      0.02456      0.00658 *
 * Ti             14      0.05948     -0.02740     -0.06932 *
 * Ti             15     -0.00163     -0.02435      0.03565 *
 * Ti             16      0.06073      0.01074      0.01086 *
 * Ti             17      0.05709      0.03034     -0.06616 *
 * Ti             18     -0.10396      0.02807     -0.09962 *
 * Ti             19     -0.08445      0.04297      0.04247 *
 * Ti             20      0.12053     -0.02787      0.02106 *
 * Ti             21      0.04101     -0.04423     -0.00849 *
 * Ti             22     -0.00729      0.02763     -0.01784 *
 * Ti             23      0.02655      0.02196     -0.02813 *
 * Ti             24      0.00537     -0.01354      0.09183 *
 * Ti             25      0.00427     -0.11204     -0.02091 *
 * Ti             26     -0.03690     -0.06683      0.03489 *
 * Ti             27     -0.06445      0.04089      0.04282 *
 * Ti             28      0.07171     -0.06011      0.02221 *
 * Ti             29      0.02768      0.05884      0.09860 *
 * Ti             30     -0.01157      0.04623     -0.02537 *
 * Ti             31     -0.06859     -0.06384     -0.11199 *
 * Ti             32      0.00649     -0.02779      0.04589 *
 * Ti             33     -0.00981     -0.15221      0.03704 *
 * Ti             34     -0.04383      0.06067     -0.06967 *
 * Ti             35     -0.00373      0.05505      0.08160 *
 * Ti             36     -0.11813      0.01718      0.20496 *
 * Ti             37      0.04013     -0.01212     -0.06767 *
 * Ti             38      0.06130      0.08120     -0.06745 *
 * Ti             39      0.02702     -0.01969      0.12570 *
 * Ti             40     -0.04600      0.03727     -0.07370 *
 * Ti             41      0.02180     -0.01706      0.02437 *
 * Ti             42      0.01428      0.04131     -0.13290 *
 * Ti             43     -0.02593     -0.08760      0.01495 *
 * Ti             44      0.07242      0.05636     -0.05375 *
 * Ti             45      0.05078      0.05512      0.05370 *
 * Ti             46     -0.04169     -0.05152     -0.04054 *
 * Ti             47      0.02526      0.05217      0.00582 *
 * Ti             48      0.06362      0.01714     -0.04856 *
 * Ti             49     -0.04767     -0.01625     -0.00584 *
 * Ti             50      0.04874      0.02571     -0.07413 *
 * Ti             51      0.03521     -0.13813     -0.05646 *
 * Ti             52     -0.01853     -0.04069     -0.04854 *
 * Ti             53     -0.04596      0.01582      0.00992 *
 * Ti             54     -0.03001     -0.02068      0.08340 *
 * Ti             55      0.06742      0.14375      0.03841 *
 * Ti             56      0.14003      0.01875      0.28432 *
 * Ti             57     -0.05145      0.07604     -0.10191 *
 * Ti             58      0.02160      0.14506      0.06046 *
 * Ti             59      0.07181     -0.09277     -0.05962 *
 * Ti             60     -0.01846      0.01653     -0.05291 *
 * Ti             61     -0.10644      0.01180     -0.05782 *
 * Ti             62     -0.02222      0.00847      0.00454 *
 * Ti             63     -0.05284      0.02625      0.01077 *
 * Ti             64      0.01855     -0.00305      0.01135 *
 * Ti             65     -0.01954      0.02021     -0.06155 *
 * Ti             66     -0.11117     -0.03290     -0.05666 *
 * Ti             67      0.05054      0.00808      0.00426 *
 * Ti             68     -0.04274      0.02479     -0.14237 *
 * Ti             69     -0.04115     -0.03343      0.04839 *
 * Ti             70     -0.01039     -0.05174     -0.11909 *
 * V               1     -0.05540     -0.00092      0.01308 *
 * V               2      0.09351      0.09003      0.05000 *
 * V               3      0.24914     -0.20563      0.19004 *
 *                                                          *
 ************************************************************

 ***************** Stress Tensor *****************
 *                                               *
 *          Cartesian components (GPa)           *
 * --------------------------------------------- *
 *             x             y             z     *
 *                                               *
 *  x      0.511862      0.028306     -0.227964  *
 *  y      0.028306      0.588770      0.774510  *
 *  z     -0.227964      0.774510      2.230077  *
 *                                               *
 *  Pressure:   -1.1102                          *
 *                                               *
 *************************************************

 Pseudo atomic calculation performed for Al 3s2 3p1

 Converged in 15 iterations to a total energy of -107.1308 eV

 Pseudo atomic calculation performed for Ti 3s2 3p6 3d2 4s2

 Converged in 34 iterations to a total energy of -1587.0236 eV

 Pseudo atomic calculation performed for V 3s2 3p6 3d3 4s2

 Converged in 35 iterations to a total energy of -2065.7874 eV
Charge spilling parameter for spin component 1 = 0.08%

            Orbital Populations       
     Ion    Atom   Orbital             Charge
  -------------------------------------------
     Al     1      S                    0.918
     Al     1      Px                   0.678
     Al     1      Py                   0.663
     Al     1      Pz                   0.670
     Al     2      S                    0.962
     Al     2      Px                   0.698
     Al     2      Py                   0.723
     Al     2      Pz                   0.669
     Al     3      S                    0.964
     Al     3      Px                   0.738
     Al     3      Py                   0.746
     Al     3      Pz                   0.631
     Al     4      S                    0.968
     Al     4      Px                   0.738
     Al     4      Py                   0.722
     Al     4      Pz                   0.635
     Al     5      S                    0.943
     Al     5      Px                   0.632
     Al     5      Py                   0.659
     Al     5      Pz                   0.690
     Al     6      S                    0.974
     Al     6      Px                   0.695
     Al     6      Py                   0.718
     Al     6      Pz                   0.672
     Al     7      S                    0.978
     Al     7      Px                   0.669
     Al     7      Py                   0.718
     Al     7      Pz                   0.688
     Al     8      S                    0.954
     Al     8      Px                   0.724
     Al     8      Py                   0.709
     Al     8      Pz                   0.663
     Ti     1      S                    2.000
     Ti     1      Px                   2.003
     Ti     1      Py                   2.003
     Ti     1      Pz                   2.004
     Ti     1      S                    0.318
     Ti     1      Dzz                  0.478
     Ti     1      Dzy                  0.618
     Ti     1      Dzx                  0.633
     Ti     1      Dxx-yy               0.452
     Ti     1      Dxy                  0.448
     Ti     1      Px                   0.336
     Ti     1      Py                   0.352
     Ti     1      Pz                   0.308
     Ti     2      S                    2.004
     Ti     2      Px                   2.007
     Ti     2      Py                   2.007
     Ti     2      Pz                   2.006
     Ti     2      S                    0.278
     Ti     2      Dzz                  0.590
     Ti     2      Dzy                  0.508
     Ti     2      Dzx                  0.502
     Ti     2      Dxx-yy               0.599
     Ti     2      Dxy                  0.597
     Ti     2      Px                   0.293
     Ti     2      Py                   0.303
     Ti     2      Pz                   0.336
     Ti     3      S                    2.004
     Ti     3      Px                   2.006
     Ti     3      Py                   2.007
     Ti     3      Pz                   2.006
     Ti     3      S                    0.283
     Ti     3      Dzz                  0.596
     Ti     3      Dzy                  0.498
     Ti     3      Dzx                  0.489
     Ti     3      Dxx-yy               0.605
     Ti     3      Dxy                  0.600
     Ti     3      Px                   0.300
     Ti     3      Py                   0.314
     Ti     3      Pz                   0.328
     Ti     4      S                    2.004
     Ti     4      Px                   2.007
     Ti     4      Py                   2.007
     Ti     4      Pz                   2.006
     Ti     4      S                    0.270
     Ti     4      Dzz                  0.596
     Ti     4      Dzy                  0.503
     Ti     4      Dzx                  0.495
     Ti     4      Dxx-yy               0.599
     Ti     4      Dxy                  0.604
     Ti     4      Px                   0.292
     Ti     4      Py                   0.304
     Ti     4      Pz                   0.328
     Ti     5      S                    2.004
     Ti     5      Px                   2.006
     Ti     5      Py                   2.007
     Ti     5      Pz                   2.006
     Ti     5      S                    0.285
     Ti     5      Dzz                  0.596
     Ti     5      Dzy                  0.494
     Ti     5      Dzx                  0.489
     Ti     5      Dxx-yy               0.606
     Ti     5      Dxy                  0.601
     Ti     5      Px                   0.303
     Ti     5      Py                   0.315
     Ti     5      Pz                   0.327
     Ti     6      S                    2.000
     Ti     6      Px                   2.003
     Ti     6      Py                   2.002
     Ti     6      Pz                   2.004
     Ti     6      S                    0.316
     Ti     6      Dzz                  0.474
     Ti     6      Dzy                  0.622
     Ti     6      Dzx                  0.644
     Ti     6      Dxx-yy               0.450
     Ti     6      Dxy                  0.438
     Ti     6      Px                   0.330
     Ti     6      Py                   0.347
     Ti     6      Pz                   0.308
     Ti     7      S                    2.004
     Ti     7      Px                   2.007
     Ti     7      Py                   2.007
     Ti     7      Pz                   2.006
     Ti     7      S                    0.266
     Ti     7      Dzz                  0.577
     Ti     7      Dzy                  0.499
     Ti     7      Dzx                  0.503
     Ti     7      Dxx-yy               0.601
     Ti     7      Dxy                  0.608
     Ti     7      Px                   0.313
     Ti     7      Py                   0.318
     Ti     7      Pz                   0.344
     Ti     8      S                    2.004
     Ti     8      Px                   2.006
     Ti     8      Py                   2.006
     Ti     8      Pz                   2.006
     Ti     8      S                    0.272
     Ti     8      Dzz                  0.589
     Ti     8      Dzy                  0.499
     Ti     8      Dzx                  0.500
     Ti     8      Dxx-yy               0.593
     Ti     8      Dxy                  0.592
     Ti     8      Px                   0.321
     Ti     8      Py                   0.324
     Ti     8      Pz                   0.339
     Ti     9      S                    2.000
     Ti     9      Px                   2.003
     Ti     9      Py                   2.003
     Ti     9      Pz                   2.004
     Ti     9      S                    0.303
     Ti     9      Dzz                  0.492
     Ti     9      Dzy                  0.583
     Ti     9      Dzx                  0.606
     Ti     9      Dxx-yy               0.472
     Ti     9      Dxy                  0.455
     Ti     9      Px                   0.356
     Ti     9      Py                   0.347
     Ti     9      Pz                   0.339
     Ti    10      S                    2.004
     Ti    10      Px                   2.007
     Ti    10      Py                   2.006
     Ti    10      Pz                   2.006
     Ti    10      S                    0.269
     Ti    10      Dzz                  0.579
     Ti    10      Dzy                  0.514
     Ti    10      Dzx                  0.509
     Ti    10      Dxx-yy               0.611
     Ti    10      Dxy                  0.590
     Ti    10      Px                   0.280
     Ti    10      Py                   0.300
     Ti    10      Pz                   0.335
     Ti    11      S                    2.004
     Ti    11      Px                   2.006
     Ti    11      Py                   2.007
     Ti    11      Pz                   2.006
     Ti    11      S                    0.284
     Ti    11      Dzz                  0.598
     Ti    11      Dzy                  0.495
     Ti    11      Dzx                  0.483
     Ti    11      Dxx-yy               0.595
     Ti    11      Dxy                  0.615
     Ti    11      Px                   0.322
     Ti    11      Py                   0.304
     Ti    11      Pz                   0.325
     Ti    12      S                    2.000
     Ti    12      Px                   2.003
     Ti    12      Py                   2.003
     Ti    12      Pz                   2.004
     Ti    12      S                    0.299
     Ti    12      Dzz                  0.500
     Ti    12      Dzy                  0.606
     Ti    12      Dzx                  0.589
     Ti    12      Dxx-yy               0.446
     Ti    12      Dxy                  0.468
     Ti    12      Px                   0.346
     Ti    12      Py                   0.347
     Ti    12      Pz                   0.342
     Ti    13      S                    2.004
     Ti    13      Px                   2.006
     Ti    13      Py                   2.006
     Ti    13      Pz                   2.006
     Ti    13      S                    0.262
     Ti    13      Dzz                  0.569
     Ti    13      Dzy                  0.503
     Ti    13      Dzx                  0.507
     Ti    13      Dxx-yy               0.606
     Ti    13      Dxy                  0.605
     Ti    13      Px                   0.322
     Ti    13      Py                   0.313
     Ti    13      Pz                   0.344
     Ti    14      S                    2.004
     Ti    14      Px                   2.006
     Ti    14      Py                   2.007
     Ti    14      Pz                   2.006
     Ti    14      S                    0.275
     Ti    14      Dzz                  0.590
     Ti    14      Dzy                  0.505
     Ti    14      Dzx                  0.481
     Ti    14      Dxx-yy               0.592
     Ti    14      Dxy                  0.610
     Ti    14      Px                   0.330
     Ti    14      Py                   0.313
     Ti    14      Pz                   0.336
     Ti    15      S                    2.000
     Ti    15      Px                   2.002
     Ti    15      Py                   2.002
     Ti    15      Pz                   2.003
     Ti    15      S                    0.308
     Ti    15      Dzz                  0.490
     Ti    15      Dzy                  0.604
     Ti    15      Dzx                  0.605
     Ti    15      Dxx-yy               0.465
     Ti    15      Dxy                  0.443
     Ti    15      Px                   0.351
     Ti    15      Py                   0.346
     Ti    15      Pz                   0.341
     Ti    16      S                    2.003
     Ti    16      Px                   2.005
     Ti    16      Py                   2.006
     Ti    16      Pz                   2.005
     Ti    16      S                    0.276
     Ti    16      Dzz                  0.606
     Ti    16      Dzy                  0.496
     Ti    16      Dzx                  0.485
     Ti    16      Dxx-yy               0.590
     Ti    16      Dxy                  0.598
     Ti    16      Px                   0.312
     Ti    16      Py                   0.313
     Ti    16      Pz                   0.323
     Ti    17      S                    2.004
     Ti    17      Px                   2.006
     Ti    17      Py                   2.006
     Ti    17      Pz                   2.005
     Ti    17      S                    0.287
     Ti    17      Dzz                  0.607
     Ti    17      Dzy                  0.506
     Ti    17      Dzx                  0.483
     Ti    17      Dxx-yy               0.591
     Ti    17      Dxy                  0.591
     Ti    17      Px                   0.310
     Ti    17      Py                   0.313
     Ti    17      Pz                   0.329
     Ti    18      S                    2.000
     Ti    18      Px                   2.002
     Ti    18      Py                   2.003
     Ti    18      Pz                   2.003
     Ti    18      S                    0.306
     Ti    18      Dzz                  0.489
     Ti    18      Dzy                  0.605
     Ti    18      Dzx                  0.589
     Ti    18      Dxx-yy               0.460
     Ti    18      Dxy                  0.472
     Ti    18      Px                   0.354
     Ti    18      Py                   0.345
     Ti    18      Pz                   0.345
     Ti    19      S                    2.004
     Ti    19      Px                   2.007
     Ti    19      Py                   2.006
     Ti    19      Pz                   2.006
     Ti    19      S                    0.273
     Ti    19      Dzz                  0.576
     Ti    19      Dzy                  0.501
     Ti    19      Dzx                  0.507
     Ti    19      Dxx-yy               0.607
     Ti    19      Dxy                  0.606
     Ti    19      Px                   0.304
     Ti    19      Py                   0.292
     Ti    19      Pz                   0.338
     Ti    20      S                    2.004
     Ti    20      Px                   2.007
     Ti    20      Py                   2.006
     Ti    20      Pz                   2.006
     Ti    20      S                    0.273
     Ti    20      Dzz                  0.579
     Ti    20      Dzy                  0.499
     Ti    20      Dzx                  0.508
     Ti    20      Dxx-yy               0.602
     Ti    20      Dxy                  0.606
     Ti    20      Px                   0.300
     Ti    20      Py                   0.292
     Ti    20      Pz                   0.338
     Ti    21      S                    2.000
     Ti    21      Px                   2.002
     Ti    21      Py                   2.002
     Ti    21      Pz                   2.003
     Ti    21      S                    0.309
     Ti    21      Dzz                  0.506
     Ti    21      Dzy                  0.601
     Ti    21      Dzx                  0.589
     Ti    21      Dxx-yy               0.446
     Ti    21      Dxy                  0.464
     Ti    21      Px                   0.353
     Ti    21      Py                   0.346
     Ti    21      Pz                   0.336
     Ti    22      S                    2.004
     Ti    22      Px                   2.006
     Ti    22      Py                   2.006
     Ti    22      Pz                   2.006
     Ti    22      S                    0.271
     Ti    22      Dzz                  0.585
     Ti    22      Dzy                  0.500
     Ti    22      Dzx                  0.509
     Ti    22      Dxx-yy               0.598
     Ti    22      Dxy                  0.604
     Ti    22      Px                   0.309
     Ti    22      Py                   0.292
     Ti    22      Pz                   0.337
     Ti    23      S                    2.003
     Ti    23      Px                   2.006
     Ti    23      Py                   2.006
     Ti    23      Pz                   2.005
     Ti    23      S                    0.267
     Ti    23      Dzz                  0.564
     Ti    23      Dzy                  0.508
     Ti    23      Dzx                  0.502
     Ti    23      Dxx-yy               0.605
     Ti    23      Dxy                  0.599
     Ti    23      Px                   0.303
     Ti    23      Py                   0.315
     Ti    23      Pz                   0.349
     Ti    24      S                    2.000
     Ti    24      Px                   2.002
     Ti    24      Py                   2.003
     Ti    24      Pz                   2.003
     Ti    24      S                    0.309
     Ti    24      Dzz                  0.485
     Ti    24      Dzy                  0.618
     Ti    24      Dzx                  0.600
     Ti    24      Dxx-yy               0.440
     Ti    24      Dxy                  0.466
     Ti    24      Px                   0.349
     Ti    24      Py                   0.348
     Ti    24      Pz                   0.346
     Ti    25      S                    2.003
     Ti    25      Px                   2.006
     Ti    25      Py                   2.006
     Ti    25      Pz                   2.005
     Ti    25      S                    0.268
     Ti    25      Dzz                  0.581
     Ti    25      Dzy                  0.495
     Ti    25      Dzx                  0.496
     Ti    25      Dxx-yy               0.608
     Ti    25      Dxy                  0.593
     Ti    25      Px                   0.327
     Ti    25      Py                   0.326
     Ti    25      Pz                   0.339
     Ti    26      S                    2.003
     Ti    26      Px                   2.006
     Ti    26      Py                   2.005
     Ti    26      Pz                   2.004
     Ti    26      S                    0.268
     Ti    26      Dzz                  0.608
     Ti    26      Dzy                  0.483
     Ti    26      Dzx                  0.505
     Ti    26      Dxx-yy               0.577
     Ti    26      Dxy                  0.604
     Ti    26      Px                   0.288
     Ti    26      Py                   0.287
     Ti    26      Pz                   0.341
     Ti    27      S                    2.000
     Ti    27      Px                   2.002
     Ti    27      Py                   2.003
     Ti    27      Pz                   2.003
     Ti    27      S                    0.314
     Ti    27      Dzz                  0.489
     Ti    27      Dzy                  0.608
     Ti    27      Dzx                  0.590
     Ti    27      Dxx-yy               0.444
     Ti    27      Dxy                  0.491
     Ti    27      Px                   0.337
     Ti    27      Py                   0.322
     Ti    27      Pz                   0.333
     Ti    28      S                    2.002
     Ti    28      Px                   2.005
     Ti    28      Py                   2.005
     Ti    28      Pz                   2.005
     Ti    28      S                    0.286
     Ti    28      Dzz                  0.571
     Ti    28      Dzy                  0.515
     Ti    28      Dzx                  0.539
     Ti    28      Dxx-yy               0.513
     Ti    28      Dxy                  0.561
     Ti    28      Px                   0.309
     Ti    28      Py                   0.320
     Ti    28      Pz                   0.353
     Ti    29      S                    2.002
     Ti    29      Px                   2.006
     Ti    29      Py                   2.005
     Ti    29      Pz                   2.004
     Ti    29      S                    0.295
     Ti    29      Dzz                  0.556
     Ti    29      Dzy                  0.472
     Ti    29      Dzx                  0.492
     Ti    29      Dxx-yy               0.620
     Ti    29      Dxy                  0.605
     Ti    29      Px                   0.336
     Ti    29      Py                   0.333
     Ti    29      Pz                   0.271
     Ti    30      S                    1.999
     Ti    30      Px                   2.002
     Ti    30      Py                   2.002
     Ti    30      Pz                   2.003
     Ti    30      S                    0.306
     Ti    30      Dzz                  0.495
     Ti    30      Dzy                  0.601
     Ti    30      Dzx                  0.573
     Ti    30      Dxx-yy               0.461
     Ti    30      Dxy                  0.468
     Ti    30      Px                   0.366
     Ti    30      Py                   0.359
     Ti    30      Pz                   0.334
     Ti    31      S                    2.002
     Ti    31      Px                   2.005
     Ti    31      Py                   2.005
     Ti    31      Pz                   2.005
     Ti    31      S                    0.278
     Ti    31      Dzz                  0.551
     Ti    31      Dzy                  0.489
     Ti    31      Dzx                  0.557
     Ti    31      Dxx-yy               0.549
     Ti    31      Dxy                  0.551
     Ti    31      Px                   0.306
     Ti    31      Py                   0.302
     Ti    31      Pz                   0.351
     Ti    32      S                    2.000
     Ti    32      Px                   2.002
     Ti    32      Py                   2.003
     Ti    32      Pz                   2.003
     Ti    32      S                    0.315
     Ti    32      Dzz                  0.510
     Ti    32      Dzy                  0.602
     Ti    32      Dzx                  0.598
     Ti    32      Dxx-yy               0.438
     Ti    32      Dxy                  0.479
     Ti    32      Px                   0.333
     Ti    32      Py                   0.315
     Ti    32      Pz                   0.337
     Ti    33      S                    2.002
     Ti    33      Px                   2.005
     Ti    33      Py                   2.005
     Ti    33      Pz                   2.005
     Ti    33      S                    0.281
     Ti    33      Dzz                  0.588
     Ti    33      Dzy                  0.483
     Ti    33      Dzx                  0.527
     Ti    33      Dxx-yy               0.543
     Ti    33      Dxy                  0.587
     Ti    33      Px                   0.303
     Ti    33      Py                   0.277
     Ti    33      Pz                   0.356
     Ti    34      S                    2.001
     Ti    34      Px                   2.004
     Ti    34      Py                   2.004
     Ti    34      Pz                   2.004
     Ti    34      S                    0.303
     Ti    34      Dzz                  0.520
     Ti    34      Dzy                  0.592
     Ti    34      Dzx                  0.567
     Ti    34      Dxx-yy               0.486
     Ti    34      Dxy                  0.484
     Ti    34      Px                   0.308
     Ti    34      Py                   0.345
     Ti    34      Pz                   0.338
     Ti    35      S                    2.002
     Ti    35      Px                   2.005
     Ti    35      Py                   2.004
     Ti    35      Pz                   2.004
     Ti    35      S                    0.291
     Ti    35      Dzz                  0.601
     Ti    35      Dzy                  0.539
     Ti    35      Dzx                  0.509
     Ti    35      Dxx-yy               0.554
     Ti    35      Dxy                  0.532
     Ti    35      Px                   0.303
     Ti    35      Py                   0.262
     Ti    35      Pz                   0.344
     Ti    36      S                    2.003
     Ti    36      Px                   2.006
     Ti    36      Py                   2.006
     Ti    36      Pz                   2.005
     Ti    36      S                    0.337
     Ti    36      Dzz                  0.569
     Ti    36      Dzy                  0.486
     Ti    36      Dzx                  0.484
     Ti    36      Dxx-yy               0.606
     Ti    36      Dxy                  0.618
     Ti    36      Px                   0.377
     Ti    36      Py                   0.374
     Ti    36      Pz                   0.241
     Ti    37      S                    2.001
     Ti    37      Px                   2.004
     Ti    37      Py                   2.004
     Ti    37      Pz                   2.005
     Ti    37      S                    0.299
     Ti    37      Dzz                  0.507
     Ti    37      Dzy                  0.585
     Ti    37      Dzx                  0.562
     Ti    37      Dxx-yy               0.521
     Ti    37      Dxy                  0.456
     Ti    37      Px                   0.343
     Ti    37      Py                   0.337
     Ti    37      Pz                   0.330
     Ti    38      S                    2.002
     Ti    38      Px                   2.005
     Ti    38      Py                   2.005
     Ti    38      Pz                   2.005
     Ti    38      S                    0.278
     Ti    38      Dzz                  0.556
     Ti    38      Dzy                  0.555
     Ti    38      Dzx                  0.501
     Ti    38      Dxx-yy               0.595
     Ti    38      Dxy                  0.502
     Ti    38      Px                   0.320
     Ti    38      Py                   0.307
     Ti    38      Pz                   0.344
     Ti    39      S                    2.002
     Ti    39      Px                   2.005
     Ti    39      Py                   2.004
     Ti    39      Pz                   2.005
     Ti    39      S                    0.308
     Ti    39      Dzz                  0.537
     Ti    39      Dzy                  0.603
     Ti    39      Dzx                  0.557
     Ti    39      Dxx-yy               0.493
     Ti    39      Dxy                  0.468
     Ti    39      Px                   0.304
     Ti    39      Py                   0.344
     Ti    39      Pz                   0.335
     Ti    40      S                    2.002
     Ti    40      Px                   2.004
     Ti    40      Py                   2.005
     Ti    40      Pz                   2.005
     Ti    40      S                    0.292
     Ti    40      Dzz                  0.578
     Ti    40      Dzy                  0.516
     Ti    40      Dzx                  0.513
     Ti    40      Dxx-yy               0.577
     Ti    40      Dxy                  0.530
     Ti    40      Px                   0.329
     Ti    40      Py                   0.263
     Ti    40      Pz                   0.336
     Ti    41      S                    2.003
     Ti    41      Px                   2.005
     Ti    41      Py                   2.006
     Ti    41      Pz                   2.005
     Ti    41      S                    0.289
     Ti    41      Dzz                  0.579
     Ti    41      Dzy                  0.504
     Ti    41      Dzx                  0.518
     Ti    41      Dxx-yy               0.607
     Ti    41      Dxy                  0.579
     Ti    41      Px                   0.311
     Ti    41      Py                   0.298
     Ti    41      Pz                   0.300
     Ti    42      S                    2.000
     Ti    42      Px                   2.002
     Ti    42      Py                   2.002
     Ti    42      Pz                   2.004
     Ti    42      S                    0.325
     Ti    42      Dzz                  0.478
     Ti    42      Dzy                  0.607
     Ti    42      Dzx                  0.633
     Ti    42      Dxx-yy               0.463
     Ti    42      Dxy                  0.449
     Ti    42      Px                   0.326
     Ti    42      Py                   0.369
     Ti    42      Pz                   0.311
     Ti    43      S                    2.002
     Ti    43      Px                   2.005
     Ti    43      Py                   2.006
     Ti    43      Pz                   2.005
     Ti    43      S                    0.297
     Ti    43      Dzz                  0.574
     Ti    43      Dzy                  0.505
     Ti    43      Dzx                  0.480
     Ti    43      Dxx-yy               0.571
     Ti    43      Dxy                  0.613
     Ti    43      Px                   0.334
     Ti    43      Py                   0.330
     Ti    43      Pz                   0.280
     Ti    44      S                    2.003
     Ti    44      Px                   2.006
     Ti    44      Py                   2.006
     Ti    44      Pz                   2.005
     Ti    44      S                    0.300
     Ti    44      Dzz                  0.574
     Ti    44      Dzy                  0.502
     Ti    44      Dzx                  0.485
     Ti    44      Dxx-yy               0.587
     Ti    44      Dxy                  0.596
     Ti    44      Px                   0.354
     Ti    44      Py                   0.334
     Ti    44      Pz                   0.292
     Ti    45      S                    2.000
     Ti    45      Px                   2.002
     Ti    45      Py                   2.002
     Ti    45      Pz                   2.004
     Ti    45      S                    0.328
     Ti    45      Dzz                  0.470
     Ti    45      Dzy                  0.625
     Ti    45      Dzx                  0.618
     Ti    45      Dxx-yy               0.463
     Ti    45      Dxy                  0.449
     Ti    45      Px                   0.326
     Ti    45      Py                   0.355
     Ti    45      Pz                   0.314
     Ti    46      S                    2.003
     Ti    46      Px                   2.006
     Ti    46      Py                   2.006
     Ti    46      Pz                   2.005
     Ti    46      S                    0.286
     Ti    46      Dzz                  0.619
     Ti    46      Dzy                  0.505
     Ti    46      Dzx                  0.476
     Ti    46      Dxx-yy               0.604
     Ti    46      Dxy                  0.590
     Ti    46      Px                   0.319
     Ti    46      Py                   0.294
     Ti    46      Pz                   0.295
     Ti    47      S                    2.000
     Ti    47      Px                   2.003
     Ti    47      Py                   2.003
     Ti    47      Pz                   2.004
     Ti    47      S                    0.309
     Ti    47      Dzz                  0.510
     Ti    47      Dzy                  0.579
     Ti    47      Dzx                  0.597
     Ti    47      Dxx-yy               0.474
     Ti    47      Dxy                  0.486
     Ti    47      Px                   0.323
     Ti    47      Py                   0.282
     Ti    47      Pz                   0.319
     Ti    48      S                    2.005
     Ti    48      Px                   2.007
     Ti    48      Py                   2.008
     Ti    48      Pz                   2.006
     Ti    48      S                    0.262
     Ti    48      Dzz                  0.573
     Ti    48      Dzy                  0.528
     Ti    48      Dzx                  0.500
     Ti    48      Dxx-yy               0.597
     Ti    48      Dxy                  0.588
     Ti    48      Px                   0.314
     Ti    48      Py                   0.303
     Ti    48      Pz                   0.353
     Ti    49      S                    2.004
     Ti    49      Px                   2.007
     Ti    49      Py                   2.006
     Ti    49      Pz                   2.006
     Ti    49      S                    0.258
     Ti    49      Dzz                  0.576
     Ti    49      Dzy                  0.502
     Ti    49      Dzx                  0.510
     Ti    49      Dxx-yy               0.597
     Ti    49      Dxy                  0.615
     Ti    49      Px                   0.309
     Ti    49      Py                   0.289
     Ti    49      Pz                   0.336
     Ti    50      S                    1.999
     Ti    50      Px                   2.002
     Ti    50      Py                   2.002
     Ti    50      Pz                   2.003
     Ti    50      S                    0.307
     Ti    50      Dzz                  0.499
     Ti    50      Dzy                  0.579
     Ti    50      Dzx                  0.606
     Ti    50      Dxx-yy               0.470
     Ti    50      Dxy                  0.453
     Ti    50      Px                   0.327
     Ti    50      Py                   0.360
     Ti    50      Pz                   0.334
     Ti    51      S                    2.004
     Ti    51      Px                   2.006
     Ti    51      Py                   2.007
     Ti    51      Pz                   2.005
     Ti    51      S                    0.277
     Ti    51      Dzz                  0.580
     Ti    51      Dzy                  0.518
     Ti    51      Dzx                  0.462
     Ti    51      Dxx-yy               0.577
     Ti    51      Dxy                  0.627
     Ti    51      Px                   0.316
     Ti    51      Py                   0.297
     Ti    51      Pz                   0.336
     Ti    52      S                    2.004
     Ti    52      Px                   2.007
     Ti    52      Py                   2.006
     Ti    52      Pz                   2.006
     Ti    52      S                    0.267
     Ti    52      Dzz                  0.580
     Ti    52      Dzy                  0.498
     Ti    52      Dzx                  0.507
     Ti    52      Dxx-yy               0.601
     Ti    52      Dxy                  0.606
     Ti    52      Px                   0.309
     Ti    52      Py                   0.290
     Ti    52      Pz                   0.343
     Ti    53      S                    2.000
     Ti    53      Px                   2.003
     Ti    53      Py                   2.003
     Ti    53      Pz                   2.004
     Ti    53      S                    0.312
     Ti    53      Dzz                  0.505
     Ti    53      Dzy                  0.592
     Ti    53      Dzx                  0.607
     Ti    53      Dxx-yy               0.466
     Ti    53      Dxy                  0.473
     Ti    53      Px                   0.344
     Ti    53      Py                   0.282
     Ti    53      Pz                   0.335
     Ti    54      S                    2.004
     Ti    54      Px                   2.007
     Ti    54      Py                   2.007
     Ti    54      Pz                   2.005
     Ti    54      S                    0.265
     Ti    54      Dzz                  0.581
     Ti    54      Dzy                  0.510
     Ti    54      Dzx                  0.474
     Ti    54      Dxx-yy               0.607
     Ti    54      Dxy                  0.607
     Ti    54      Px                   0.303
     Ti    54      Py                   0.319
     Ti    54      Pz                   0.348
     Ti    55      S                    2.004
     Ti    55      Px                   2.007
     Ti    55      Py                   2.006
     Ti    55      Pz                   2.005
     Ti    55      S                    0.247
     Ti    55      Dzz                  0.591
     Ti    55      Dzy                  0.498
     Ti    55      Dzx                  0.486
     Ti    55      Dxx-yy               0.596
     Ti    55      Dxy                  0.618
     Ti    55      Px                   0.300
     Ti    55      Py                   0.309
     Ti    55      Pz                   0.354
     Ti    56      S                    2.001
     Ti    56      Px                   2.004
     Ti    56      Py                   2.003
     Ti    56      Pz                   2.003
     Ti    56      S                    0.282
     Ti    56      Dzz                  0.555
     Ti    56      Dzy                  0.518
     Ti    56      Dzx                  0.515
     Ti    56      Dxx-yy               0.531
     Ti    56      Dxy                  0.575
     Ti    56      Px                   0.308
     Ti    56      Py                   0.302
     Ti    56      Pz                   0.345
     Ti    57      S                    2.004
     Ti    57      Px                   2.006
     Ti    57      Py                   2.007
     Ti    57      Pz                   2.006
     Ti    57      S                    0.284
     Ti    57      Dzz                  0.568
     Ti    57      Dzy                  0.515
     Ti    57      Dzx                  0.499
     Ti    57      Dxx-yy               0.595
     Ti    57      Dxy                  0.606
     Ti    57      Px                   0.320
     Ti    57      Py                   0.312
     Ti    57      Pz                   0.345
     Ti    58      S                    2.001
     Ti    58      Px                   2.004
     Ti    58      Py                   2.004
     Ti    58      Pz                   2.004
     Ti    58      S                    0.294
     Ti    58      Dzz                  0.519
     Ti    58      Dzy                  0.528
     Ti    58      Dzx                  0.584
     Ti    58      Dxx-yy               0.445
     Ti    58      Dxy                  0.549
     Ti    58      Px                   0.362
     Ti    58      Py                   0.320
     Ti    58      Pz                   0.338
     Ti    59      S                    2.002
     Ti    59      Px                   2.005
     Ti    59      Py                   2.005
     Ti    59      Pz                   2.004
     Ti    59      S                    0.276
     Ti    59      Dzz                  0.572
     Ti    59      Dzy                  0.499
     Ti    59      Dzx                  0.533
     Ti    59      Dxx-yy               0.539
     Ti    59      Dxy                  0.570
     Ti    59      Px                   0.300
     Ti    59      Py                   0.312
     Ti    59      Pz                   0.345
     Ti    60      S                    2.004
     Ti    60      Px                   2.006
     Ti    60      Py                   2.006
     Ti    60      Pz                   2.005
     Ti    60      S                    0.281
     Ti    60      Dzz                  0.592
     Ti    60      Dzy                  0.482
     Ti    60      Dzx                  0.497
     Ti    60      Dxx-yy               0.597
     Ti    60      Dxy                  0.602
     Ti    60      Px                   0.317
     Ti    60      Py                   0.320
     Ti    60      Pz                   0.333
     Ti    61      S                    2.002
     Ti    61      Px                   2.004
     Ti    61      Py                   2.005
     Ti    61      Pz                   2.004
     Ti    61      S                    0.295
     Ti    61      Dzz                  0.544
     Ti    61      Dzy                  0.509
     Ti    61      Dzx                  0.597
     Ti    61      Dxx-yy               0.473
     Ti    61      Dxy                  0.541
     Ti    61      Px                   0.337
     Ti    61      Py                   0.281
     Ti    61      Pz                   0.344
     Ti    62      S                    2.003
     Ti    62      Px                   2.006
     Ti    62      Py                   2.005
     Ti    62      Pz                   2.005
     Ti    62      S                    0.283
     Ti    62      Dzz                  0.604
     Ti    62      Dzy                  0.487
     Ti    62      Dzx                  0.493
     Ti    62      Dxx-yy               0.620
     Ti    62      Dxy                  0.539
     Ti    62      Px                   0.315
     Ti    62      Py                   0.334
     Ti    62      Pz                   0.326
     Ti    63      S                    2.001
     Ti    63      Px                   2.004
     Ti    63      Py                   2.004
     Ti    63      Pz                   2.004
     Ti    63      S                    0.304
     Ti    63      Dzz                  0.509
     Ti    63      Dzy                  0.591
     Ti    63      Dzx                  0.557
     Ti    63      Dxx-yy               0.505
     Ti    63      Dxy                  0.502
     Ti    63      Px                   0.294
     Ti    63      Py                   0.325
     Ti    63      Pz                   0.340
[...]
             Ti 59 -- Ti 68                  0.27        2.70469
              Al 6 -- Ti 35                  0.34        2.71005
             Ti 44 -- Ti 67                  0.31        2.71155
             Ti 3  -- Ti 28                  0.26        2.71215
              Al 4 -- V 2                    0.30        2.71259
             Ti 38 -- Ti 44                  0.24        2.71420
             Ti 40 -- Ti 46                  0.25        2.71685
             Ti 59 -- Ti 60                  0.24        2.72365
             Ti 59 -- V 3                    0.16        2.72466
             Ti 28 -- Ti 29                  0.21        2.72607
             Ti 5  -- Ti 31                  0.28        2.73270
              Al 3 -- Ti 39                  0.31        2.73404
             Ti 29 -- V 2                    0.18        2.73636
              Al 2 -- V 1                    0.30        2.73693
             Ti 56 -- Ti 65                  0.26        2.73898
              Al 3 -- Al 4                   0.22        2.74623
              Al 3 -- Ti 69                  0.28        2.74642
             Ti 16 -- Ti 62                  0.29        2.75058
              Al 4 -- Ti 63                  0.32        2.75596
             Ti 36 -- Ti 58                  0.21        2.77121
              Al 3 -- V 3                    0.26        2.78361
             Ti 58 -- V 2                    0.33        2.78479
             Ti 35 -- Ti 36                  0.18        2.78656
              Al 3 -- Ti 38                  0.27        2.78691
             Ti 36 -- Ti 66                  0.21        2.78772
              Al 4 -- V 3                    0.29        2.78922
              Al 2 -- Ti 61                  0.26        2.78948
              Al 7 -- Ti 41                  0.30        2.79056
              Al 6 -- Ti 44                  0.27        2.79118
              Al 4 -- Ti 33                  0.28        2.79138
              Al 6 -- Ti 46                  0.30        2.79418
              Al 4 -- Ti 34                  0.33        2.79596
             Ti 28 -- Ti 31                  0.19        2.80107
              Al 8 -- Ti 67                  0.25        2.80339
             Ti 57 -- Ti 62                  0.09        2.80413
             Ti 58 -- V 1                    0.17        2.80799
             Ti 20 -- Ti 23                  0.12        2.80964
             Ti 48 -- Ti 54                  0.12        2.81203
             Ti 69 -- V 3                    0.16        2.81218
             Ti 49 -- Ti 52                  0.03        2.81340
              Al 8 -- Ti 64                  0.29        2.81832
             Ti 36 -- Ti 37                  0.22        2.81880
             Ti 34 -- Ti 37                  0.31        2.82037
             Ti 65 -- Ti 68                  0.09        2.82081
              Al 4 -- Ti 56                  0.21        2.82646
             Ti 9  -- Ti 15                  0.40        2.82982
             Ti 63 -- Ti 66                  0.27        2.83017
             Ti 37 -- Ti 39                  0.30        2.83122
             Ti 28 -- Ti 36                  0.16        2.83148
             Ti 1  -- Ti 6                   0.38        2.83149
             Ti 42 -- Ti 45                  0.37        2.83566
              Al 7 -- Ti 43                  0.24        2.83679
             Ti 38 -- Ti 40                  0.15        2.83714
             Ti 14 -- Ti 17                  0.11        2.83744
             Ti 36 -- Ti 59                  0.22        2.83757
             Ti 19 -- Ti 22                  0.08        2.83840
             Ti 47 -- Ti 53                  0.31        2.84034
             Ti 56 -- V 3                    0.20        2.84041
              Al 3 -- Ti 31                  0.24        2.84086
             Ti 18 -- Ti 24                  0.39        2.84260
             Ti 30 -- Ti 32                  0.32        2.84309
             Ti 29 -- V 1                    0.17        2.84326
             Ti 30 -- V 1                    0.21        2.84342
             Ti 61 -- V 2                    0.32        2.84463
             Ti 2  -- Ti 7                   0.10        2.84491
             Ti 3  -- Ti 8                   0.08        2.84536
             Ti 54 -- V 2                    0.21        2.84582
             Ti 66 -- Ti 69                  0.30        2.84659
             Ti 10 -- Ti 13                  0.08        2.84662
             Ti 11 -- Ti 17                  0.07        2.84671
             Ti 27 -- Ti 30                  0.37        2.84711
             Ti 48 -- Ti 51                  0.08        2.84715
             Ti 18 -- Ti 21                  0.34        2.84824
             Ti 64 -- Ti 66                  0.17        2.84884
             Ti 4  -- Ti 7                   0.10        2.85045
             Ti 13 -- Ti 16                  0.08        2.85097
             Ti 22 -- Ti 25                  0.08        2.85121
              Al 5 -- Ti 45                  0.42        2.85196
             Ti 3  -- Ti 5                   0.07        2.85203
             Ti 5  -- Ti 8                   0.07        2.85243
             Ti 50 -- Ti 53                  0.37        2.85248
             Ti 10 -- Ti 16                  0.07        2.85366
             Ti 2  -- Ti 4                   0.07        2.85451
             Ti 35 -- Ti 38                  0.23        2.85591
             Ti 35 -- Ti 40                  0.17        2.85679
             Ti 12 -- Ti 15                  0.36        2.85684
             Ti 47 -- Ti 50                  0.34        2.85808
              Al 1 -- Ti 1                   0.33        2.85836
              Al 3 -- Ti 40                  0.25        2.85911
              Al 1 -- Ti 6                   0.33        2.85968
             Ti 27 -- Ti 32                  0.33        2.86006
             Ti 21 -- Ti 24                  0.35        2.86016
             Ti 19 -- Ti 25                  0.07        2.86041
             Ti 28 -- Ti 33                  0.18        2.86066
             Ti 48 -- Ti 58                  0.11        2.86093
             Ti 65 -- Ti 66                  0.16        2.86151
              Al 5 -- Ti 42                  0.35        2.86278
             Ti 65 -- Ti 70                  0.13        2.86295
             Ti 9  -- Ti 12                  0.33        2.86367
             Ti 11 -- Ti 14                  0.10        2.86613
             Ti 52 -- Ti 55                  0.06        2.86643
             Ti 68 -- Ti 70                  0.10        2.86719
             Ti 23 -- Ti 26                  0.14        2.86781
             Ti 61 -- Ti 62                  0.04        2.86904
             Ti 42 -- Ti 44                  0.21        2.87016
             Ti 49 -- Ti 55                  0.07        2.87043
             Ti 2  -- Ti 37                  0.17        2.87285
             Ti 20 -- Ti 26                  0.10        2.87372
             Ti 63 -- Ti 69                  0.27        2.87576
             Ti 57 -- Ti 60                  0.12        2.87586
             Ti 67 -- Ti 69                  0.18        2.87620
              Al 3 -- Ti 59                  0.20        2.87750
             Ti 61 -- V 3                    0.16        2.87903
              Al 4 -- Ti 40                  0.25        2.87911
              Al 4 -- Ti 36                  0.20        2.88125
             Ti 11 -- Ti 37                  0.16        2.88179
              Al 7 -- Ti 47                  0.24        2.88543
             Ti 31 -- Ti 33                  0.18        2.88830
             Ti 60 -- Ti 62                  0.10        2.88851
             Ti 4  -- Ti 39                  0.13        2.88899
             Ti 51 -- Ti 58                  0.12        2.88907
             Ti 63 -- Ti 70                  0.09        2.89256
             Ti 21 -- Ti 65                  0.20        2.89257
             Ti 62 -- V 2                    0.09        2.89263
              Al 8 -- Ti 63                  0.24        2.89347
              Al 7 -- Ti 27                  0.24        2.89562
             Ti 32 -- Ti 43                  0.13        2.89663
             Ti 51 -- Ti 54                  0.13        2.89709
             Ti 48 -- V 2                    0.15        2.89718
             Ti 34 -- Ti 39                  0.33        2.89898
              Al 6 -- Ti 66                  0.22        2.90116
              Al 3 -- Ti 33                  0.22        2.90180
             Ti 14 -- Ti 39                  0.14        2.90244
             Ti 44 -- Ti 66                  0.16        2.90677
             Ti 28 -- V 2                    0.17        2.90767
             Ti 24 -- Ti 68                  0.13        2.90786
             Ti 53 -- Ti 67                  0.17        2.90843
             Ti 36 -- Ti 38                  0.18        2.90908
             Ti 6  -- Ti 67                  0.12        2.91142
             Ti 44 -- Ti 50                  0.16        2.91142
              Al 2 -- Ti 32                  0.25        2.91256
             Ti 18 -- Ti 62                  0.15        2.91462
             Ti 31 -- Ti 36                  0.16        2.91504
             Ti 33 -- V 2                    0.16        2.91767
             Ti 27 -- Ti 29                  0.16        2.91930
              Al 4 -- Ti 28                  0.18        2.91969
             Ti 4  -- Ti 37                  0.15        2.92016
             Ti 7  -- Ti 39                  0.15        2.92073
             Ti 1  -- Ti 64                  0.15        2.92300
             Ti 18 -- Ti 70                  0.12        2.92544
             Ti 43 -- Ti 53                  0.12        2.92583
             Ti 66 -- Ti 67                  0.14        2.92668
             Ti 36 -- Ti 56                  0.18        2.92686
             Ti 5  -- Ti 37                  0.13        2.92702
             Ti 34 -- Ti 35                  0.13        2.92756
             Ti 46 -- Ti 53                  0.15        2.92757
              Al 3 -- Ti 36                  0.17        2.92768
              Al 6 -- Ti 63                  0.21        2.92818
              Al 2 -- V 2                    0.20        2.92829
             Ti 64 -- Ti 67                  0.10        2.92849
             Ti 11 -- Ti 34                  0.15        2.92871
             Ti 51 -- Ti 61                  0.13        2.92984
             Ti 41 -- Ti 43                  0.08        2.93110
             Ti 58 -- Ti 61                  0.27        2.93249
              Al 6 -- Ti 47                  0.24        2.93468
             Ti 3  -- Ti 37                  0.15        2.93557
             Ti 9  -- Ti 54                  0.16        2.93648
             Ti 17 -- Ti 34                  0.14        2.93714
             Ti 7  -- Ti 34                  0.13        2.93715
             Ti 5  -- Ti 39                  0.12        2.93732
              Al 8 -- Ti 69                  0.23        2.93739
             Ti 66 -- Ti 68                  0.18        2.93755
             Ti 8  -- Ti 39                  0.13        2.93775
             Ti 2  -- Ti 34                  0.12        2.93793
             Ti 4  -- Ti 12                  0.15        2.93890
             Ti 68 -- Ti 69                  0.09        2.93904
             Ti 45 -- Ti 46                  0.17        2.93987
              Al 2 -- Ti 53                  0.24        2.94017
              Al 1 -- Ti 64                  0.18        2.94104
             Ti 3  -- Ti 30                  0.17        2.94122
              Al 8 -- Ti 53                  0.19        2.94184
              Al 8 -- Ti 1                   0.20        2.94204
             Ti 6  -- Ti 25                  0.12        2.94325
             Ti 33 -- Ti 61                  0.11        2.94337
             Ti 18 -- Ti 20                  0.14        2.94376
             Ti 57 -- Ti 58                  0.14        2.94464
             Ti 12 -- Ti 52                  0.12        2.94591
             Ti 29 -- Ti 47                  0.15        2.94646
             Ti 12 -- Ti 57                  0.16        2.94685
             Ti 41 -- Ti 42                  0.15        2.94854
             Ti 3  -- Ti 34                  0.12        2.94873
             Ti 24 -- Ti 70                  0.13        2.94998
             Ti 60 -- Ti 61                  0.14        2.95042
             Ti 15 -- Ti 60                  0.14        2.95072
             Ti 9  -- Ti 17                  0.15        2.95196
             Ti 8  -- Ti 27                  0.11        2.95209
             Ti 46 -- Ti 63                  0.15        2.95227
             Ti 9  -- Ti 57                  0.11        2.95253
             Ti 56 -- Ti 63                  0.14        2.95256
             Ti 28 -- Ti 34                  0.13        2.95290
             Ti 21 -- Ti 68                  0.16        2.95382
             Ti 24 -- Ti 62                  0.14        2.95420
              Al 5 -- Al 6                   0.21        2.95475
             Ti 69 -- Ti 70                  0.06        2.95495
             Ti 47 -- Ti 64                  0.11        2.95604
             Ti 31 -- Ti 37                  0.14        2.95629
             Ti 35 -- Ti 63                  0.15        2.95644
             Ti 28 -- Ti 58                  0.08        2.95646
             Ti 59 -- Ti 61                  0.13        2.95677
             Ti 5  -- Ti 32                  0.16        2.95814
              Al 5 -- Ti 46                  0.21        2.96081
             Ti 37 -- Ti 38                  0.10        2.96089
             Ti 56 -- V 2                    0.16        2.96146
             Ti 16 -- Ti 18                  0.14        2.96181
             Ti 9  -- Ti 16                  0.13        2.96184
             Ti 24 -- Ti 60                  0.13        2.96337
              Al 5 -- Ti 17                  0.17        2.96457
             Ti 9  -- Ti 10                  0.12        2.96462
             Ti 63 -- Ti 64                  0.12        2.96490
             Ti 44 -- Ti 46                  0.12        2.96519
             Ti 59 -- Ti 66                  0.15        2.96636
             Ti 15 -- Ti 54                  0.13        2.96644
             Ti 46 -- Ti 47                  0.13        2.96663
              Al 8 -- Ti 6                   0.20        2.96686
              Al 8 -- Ti 47                  0.19        2.96712
             Ti 15 -- Ti 16                  0.13        2.96791
             Ti 10 -- Ti 42                  0.10        2.96883
             Ti 1  -- Ti 7                   0.11        2.96889
             Ti 44 -- Ti 69                  0.11        2.96991
             Ti 63 -- Ti 65                  0.08        2.97024
             Ti 17 -- Ti 39                  0.10        2.97079
             Ti 22 -- Ti 32                  0.13        2.97279
             Ti 8  -- Ti 34                  0.11        2.97360
              Al 5 -- Ti 11                  0.18        2.97395
             Ti 39 -- Ti 40                  0.13        2.97442
             Ti 14 -- Ti 42                  0.16        2.97465
             Ti 1  -- Ti 19                  0.13        2.97514
             Ti 38 -- Ti 39                  0.13        2.97520
             Ti 16 -- Ti 24                  0.15        2.97520
             Ti 2  -- Ti 9                   0.11        2.97538
             Ti 12 -- Ti 14                  0.11        2.97542
             Ti 27 -- Ti 41                  0.17        2.97581
             Ti 12 -- Ti 48                  0.12        2.97606
              Al 1 -- Ti 5                   0.18        2.97611
             Ti 46 -- Ti 69                  0.13        2.97636
             Ti 51 -- Ti 53                  0.13        2.97651
              Al 2 -- Ti 29                  0.22        2.97663
             Ti 21 -- Ti 57                  0.16        2.97690
             Ti 15 -- Ti 55                  0.15        2.97723
              Al 1 -- Ti 22                  0.17        2.97723
              Al 1 -- Ti 2                   0.15        2.97776
             Ti 26 -- Ti 27                  0.16        2.97873
             Ti 6  -- Ti 7                   0.10        2.97898
             Ti 40 -- Ti 69                  0.13        2.97966
             Ti 14 -- Ti 37                  0.13        2.97987
             Ti 15 -- Ti 17                  0.11        2.98010
             Ti 44 -- Ti 45                  0.14        2.98029
             Ti 31 -- Ti 61                  0.09        2.98164
             Ti 9  -- Ti 11                  0.15        2.98182
             Ti 43 -- Ti 45                  0.20        2.98235
             Ti 58 -- Ti 59                  0.16        2.98239
             Ti 52 -- Ti 53                  0.13        2.98266
             Ti 21 -- Ti 60                  0.15        2.98299
             Ti 14 -- Ti 45                  0.14        2.98335
             Ti 30 -- Ti 41                  0.11        2.98404
              Al 6 -- Ti 50                  0.16        2.98476
             Ti 18 -- Ti 56                  0.14        2.98478
             Ti 41 -- Ti 50                  0.14        2.98514
             Ti 31 -- Ti 58                  0.08        2.98565
             Ti 58 -- Ti 60                  0.15        2.98621
             Ti 43 -- Ti 50                  0.10        2.98678
              Al 7 -- Ti 53                  0.15        2.98700
              Al 5 -- Ti 10                  0.14        2.98707
             Ti 12 -- Ti 13                  0.11        2.98725
             Ti 53 -- Ti 55                  0.06        2.98775
             Ti 11 -- Ti 42                  0.14        2.98812
              Al 1 -- Ti 4                   0.15        2.98943
              Al 7 -- Ti 32                  0.18        2.98985
             Ti 8  -- Ti 32                  0.11        2.99077
              Al 1 -- Ti 67                  0.15        2.99100
             Ti 47 -- Ti 55                  0.09        2.99111
             Ti 1  -- Ti 25                  0.13        2.99124
             Ti 29 -- Ti 58                  0.06        2.99212
             Ti 4  -- Ti 6                   0.12        2.99266
             Ti 47 -- Ti 49                  0.10        2.99306
             Ti 18 -- Ti 57                  0.13        2.99316
             Ti 10 -- Ti 12                  0.12        2.99333
             Ti 5  -- Ti 30                  0.16        2.99337
             Ti 19 -- Ti 30                  0.14        2.99353
             Ti 38 -- Ti 69                  0.13        2.99374
             Ti 56 -- Ti 59                  0.21        2.99556
              Al 1 -- Ti 65                  0.16        2.99677
             Ti 23 -- Ti 45                  0.12        2.99731
             Ti 6  -- Ti 68                  0.11        2.99769
             Ti 13 -- Ti 15                  0.13        2.99840
             Ti 19 -- Ti 27                  0.11        2.99887
             Ti 34 -- Ti 40                  0.13        2.99896
             Ti 26 -- Ti 32                  0.15        2.99946
             Ti 2  -- Ti 12                  0.13        2.99983
======================================================================

 
 A BibTeX formatted list of references used in this run has been written to 
 sqs_hex_sc3x3x3_Ti70Al8V3_frame0_18.bib
 
Initialisation time =     22.99 s
Calculation time    =   6600.15 s
Finalisation time   =      0.46 s
Total time          =   6623.60 s
Peak Memory Use     = 2624276 kB
 
Overall parallel efficiency rating: Mediocre (57%)
 
Data was distributed by:-
G-vector (16-way); efficiency rating: Mediocre (58%)
k-point (15-way); efficiency rating: Excellent (94%)
