 +-------------------------------------------------+
 |                                                 |
 |      CCC   AA    SSS  TTTTT  EEEEE  PPPP        |
 |     C     A  A  S       T    E      P   P       |
 |     C     AAAA   SS     T    EEE    PPPP        |
 |     C     A  A     S    T    E      P           |
 |      CCC  A  A  SSS     T    EEEEE  P           |
 |                                                 |
 +-------------------------------------------------+
 |                                                 |
 | Welcome to Academic Release CASTEP version 24.1 |
 | Ab Initio Total Energy Program                  |
 |                                                 |
 | Authors:                                        |
 | M. Segall, M. Probert, C. Pickard, P. Hasnip,   |
 | S. Clark, K. Refson, J. R. Yates,               |
 | A. Bartok-Partay, M. Payne                      |
 |                                                 |
 | Contributors:                                   |
 | P. Lindan, P. Haynes, J. White, V. Milman,      |
 | N. Govind, M. Gibson, P. Tulip, V. Cocula,      |
 | B. Montanari, D. Quigley, M. Glover,            |
 | L. Bernasconi, A. Perlov, M. Plummer,           |
 | E. McNellis, J. Meyer, J. Gale, D. Jochym       |
 | J. Aarons, B. Walker, R. Gillen, D. Jones       |
 | T. Green, I. J. Bush, C. J. Armstrong,          |
 | E. J. Higgins, E. L. Brown, M. S. McFly,        |
 | J. Wilkins, B-C. Shih, P. J. P. Byrne,          |
 | R. J. Maurer, J. C. Womack, J. Dziedzic,        |
 | L. LeBlanc, T. K. Stenczel, J. Kermode,         |
 | S. Sturniolo, B. Shi, B. Durham, M. Evans,      |
 | M. J. Smith, A. Tamerus, Z. Hawkhead,           |
 | V. Ravindran, T. Hollins, S. A. Joyce,          |
 | R. T. Strong, A. M. Reilly                      |
 |                                                 |
 | Copyright (c) 2000 - 2023                       |
 |                                                 |
 |     Distributed under license from Cambridge    |
 |     Enterprise for academic use only.           |
 |                                                 |
 | Please cite                                     |
 |                                                 |
 |     "First principles methods using CASTEP"     |
 |                                                 |
 |         Zeitschrift fuer Kristallographie       |
 |           220(5-6) pp. 567-570 (2005)           |
 |                                                 |
 | S. J. Clark, M. D. Segall, C. J. Pickard,       |
 | P. J. Hasnip, M. J. Probert, K. Refson,         |
 | M. C. Payne                                     |
 |                                                 |
 |       in all publications arising from          |
 |              your use of CASTEP                 |
 |                                                 |
 +-------------------------------------------------+
 |                                                 |
 |              http://www.castep.org              |
 |                                                 |
 +-------------------------------------------------+



 Compiled for linux_x86_64_gfortran10 on Tue, 02 May 2023 15:31:46 +0100
 from code version db08e394c+  default  Mon May 1 16:40:39 2023 +0100
 Compiler: GNU Fortran 10.2.0; Optimisation: fast
 Comms   : Open MPI v4.0.5
 MATHLIBS: openblas (LAPACK version 3.9.0)
 FFT Lib : fftw3 version fftw-3.3.8-sse2-avx-avx2-avx2_128
 Fundamental constants values: CODATA 2018

 Run started: Wed, 07 Feb 2024 11:32:20 +0000
 Info: number of up-spin electrons is not equal to the
       number of down-spins but spin_polarized=false
     - consider setting spin_polarized=true.

 Atomic calculation performed for Al: 1s2 2s2 2p6 3s2 3p1

 Converged in 54 iterations to an ae energy of -6603.783 eV

   ============================================================                
   | Pseudopotential Report - Date of generation  7-02-2024   |                
   ------------------------------------------------------------                
   | Element: Al Ionic charge:  3.00 Level of theory: PBE     |                
   | Atomic Solver: Koelling-Harmon                           |                
   |                                                          |                
   |               Reference Electronic Structure             |                
   |         Orbital         Occupation         Energy        |                
   |            3s              2.000           -0.285        |                
   |            3p              1.000           -0.100        |                
   |                                                          |                
   |                 Pseudopotential Definition               |                
   |        Beta     l      e      Rc     scheme   norm       |                
   |          1      0   -0.285   2.192     qc      0         |                
   |          2      0    0.250   2.192     qc      0         |                
   |          3      1   -0.100   2.192     qc      0         |                
   |          4      1    0.250   2.192     qc      0         |                
   |          5      2    0.000   2.000     qc      0         |                
   |          6      2    0.250   2.000     qc      0         |                
   |         loc     3    0.000   2.192     pn      0         |                
   |                                                          |                
   | Augmentation charge Rinner = 1.398                       |                
   | Partial core correction Rc = 1.398                       |                
   ------------------------------------------------------------                
   | "3|2.2|2.2|1.4|4|5|5|30:31:32U2U2"                       |                
   ------------------------------------------------------------                
   |      Author: Chris J. Pickard, Cambridge University      |                
   ============================================================                

 Atomic calculation performed for Ti: 1s2 2s2 2p6 3s2 3p6 3d2 4s2

 Converged in 79 iterations to an ae energy of -23226.658 eV

   ============================================================                
   | Pseudopotential Report - Date of generation  7-02-2024   |                
   ------------------------------------------------------------                
   | Element: Ti Ionic charge: 12.00 Level of theory: PBE     |                
   | Atomic Solver: Koelling-Harmon                           |                
   |                                                          |                
   |               Reference Electronic Structure             |                
   |         Orbital         Occupation         Energy        |                
   |            3s              2.000           -2.302        |                
   |            3p              6.000           -1.428        |                
   |            4s              2.000           -0.164        |                
   |            3d              2.000           -0.157        |                
   |                                                          |                
   |                 Pseudopotential Definition               |                
   |        Beta     l      e      Rc     scheme   norm       |                
   |          1      0   -2.302   1.793     qc      0         |                
   |          2      0   -0.164   1.793     qc      0         |                
   |          3      0    0.250   1.793     qc      0         |                
   |          4      1   -1.428   1.793     qc      0         |                
   |          5      1    0.250   1.793     qc      0         |                
   |          6      2   -0.157   1.793     qc      0         |                
   |          7      2    0.250   1.793     qc      0         |                
   |         loc     3    0.000   1.793     pn      0         |                
   |                                                          |                
   | Augmentation charge Rinner = 1.263                       |                
   | Partial core correction Rc = 1.263                       |                
   ------------------------------------------------------------                
   | "3|1.8|9|10|11|30U:40:31:32(qc=5.5)"                     |                
   ------------------------------------------------------------                
   |      Author: Chris J. Pickard, Cambridge University      |                
   ============================================================                

 Atomic calculation performed for V: 1s2 2s2 2p6 3s2 3p6 3d3 4s2

 Converged in 81 iterations to an ae energy of -25823.733 eV

   ============================================================                
   | Pseudopotential Report - Date of generation  7-02-2024   |                
   ------------------------------------------------------------                
   | Element: V Ionic charge: 13.00 Level of theory: PBE      |                
   | Atomic Solver: Koelling-Harmon                           |                
   |                                                          |                
   |               Reference Electronic Structure             |                
   |         Orbital         Occupation         Energy        |                
   |            3s              2.000           -2.581        |                
   |            3p              6.000           -1.618        |                
   |            3d              3.000           -0.190        |                
   |            4s              2.000           -0.173        |                
   |                                                          |                
   |                 Pseudopotential Definition               |                
   |        Beta     l      e      Rc     scheme   norm       |                
   |          1      0   -2.581   1.803     qc      0         |                
   |          2      0   -0.173   1.803     qc      0         |                
   |          3      0    0.250   1.803     qc      0         |                
   |          4      1   -1.618   1.803     qc      0         |                
   |          5      1    0.250   1.803     qc      0         |                
   |          6      2   -0.190   1.803     qc      0         |                
   |          7      2    0.250   1.803     qc      0         |                
   |         loc     3    0.000   1.803     pn      0         |                
   |                                                          |                
   | Augmentation charge Rinner = 0.600                       |                
   | Partial core correction Rc = 0.600                       |                
   ------------------------------------------------------------                
   | "3|1.8|1.8|0.6|12|14|16|30U:40:31:32(qc=7)"              |                
   ------------------------------------------------------------                
   |      Author: Chris J. Pickard, Cambridge University      |                
   ============================================================                

 Pseudo atomic calculation performed for Al 3s2 3p1

 Converged in 15 iterations to a total energy of -107.1308 eV

 Pseudo atomic calculation performed for Ti 3s2 3p6 3d2 4s2

 Converged in 34 iterations to a total energy of -1587.0236 eV

 Pseudo atomic calculation performed for V 3s2 3p6 3d3 4s2

 Converged in 35 iterations to a total energy of -2065.7874 eV
 Calculation parallelised over 288 processes.
 Data is distributed by G-vector(16-way) and k-point(18-way)

 ************************************ Title ************************************
 

 ***************************** General Parameters ******************************
  
 output verbosity                               : normal  (1)
 write checkpoint data to                       : sqs_bcc_sc4x4x4_Ti55Al7V2_frame0_04.check
 type of calculation                            : single point energy
 stress calculation                             : on
 density difference calculation                 : off
 electron localisation func (ELF) calculation   : off
 Hirshfeld analysis                             : off
 polarisation (Berry phase) analysis            : off
 molecular orbital projected DOS                : off
 deltaSCF calculation                           : off
 unlimited duration calculation
 timing information                             : on
 memory usage estimate                          : on
 write extra output files                       : on
 write final potential to formatted file        : off
 write final density to formatted file          : off
 write BibTeX reference list                    : on
 write OTFG pseudopotential files               : on
 write electrostatic potential file             : on
 write bands file                               : on
 checkpoint writing                             : both castep_bin and check files
  
 output         length unit                     : A
 output           mass unit                     : amu
 output           time unit                     : ps
 output         charge unit                     : e
 output           spin unit                     : hbar/2
 output         energy unit                     : eV
 output          force unit                     : eV/A
 output       velocity unit                     : A/ps
 output       pressure unit                     : GPa
 output     inv_length unit                     : 1/A
 output      frequency unit                     : cm-1
 output force constant unit                     : eV/A**2
 output         volume unit                     : A**3
 output   IR intensity unit                     : (D/A)**2/amu
 output         dipole unit                     : D
 output         efield unit                     : eV/A/e
 output        entropy unit                     : J/mol/K
 output    efield chi2 unit                     : pm/V
  
 wavefunctions paging                           : none
 random number generator seed                   :  113221069
 data distribution                              : k-point only
 optimization strategy                          : maximize speed(+++)

 *********************** Exchange-Correlation Parameters ***********************
  
 using functional                               : Perdew Burke Ernzerhof
 relativistic treatment                         : Koelling-Harmon
 DFT+D: Semi-empirical dispersion correction    : off

 ************************* Pseudopotential Parameters **************************
  
 pseudopotential representation                 : reciprocal space
 <beta|phi> representation                      : reciprocal space
 spin-orbit coupling                            : off

 **************************** Basis Set Parameters *****************************
  
 plane wave basis set cut-off                   :   800.0000   eV
 size of standard grid                          :     2.0000
 size of   fine   gmax                          :    28.9810   1/A
 largest prime factor in FFT                    :          5
 finite basis set correction                    : automatic
 number of sample energies                      :          3
           sample  spacing                      :     5.0000   eV

 **************************** Electronic Parameters ****************************
  
 number of  electrons                           :  707.0    
 net charge of system                           :  0.000    
 treating system as non-spin-polarized
 number of bands                                :        389

 ********************* Electronic Minimization Parameters **********************
  
 Method: Treating system as metallic with density mixing treatment of electrons,
         and number of  SD  steps               :          1
         and number of  CG  steps               :          4
  
 total energy / atom convergence tol.           : 0.1000E-05   eV
 eigen-energy convergence tolerance             : 0.1645E-06   eV
 max force / atom convergence tol.              : ignored
 convergence tolerance window                   :          3   cycles
 max. number of SCF cycles                      :         30
 number of fixed-spin iterations                :         10
 smearing scheme                                : Gaussian
 smearing width                                 : 0.5000E-01   eV
 Fermi energy convergence tolerance             : 0.2721E-13   eV
 periodic dipole correction                     : NONE

 ************************** Density Mixing Parameters **************************
  
 density-mixing scheme                          : Pulay
 max. length of mixing history                  :         20
 charge density mixing amplitude                : 0.8000    
 cut-off energy for mixing                      :  800.0       eV
 charge density mixing g-vector                 :  1.500       1/A

 *********************** Population Analysis Parameters ************************
  
 Population analysis with cutoff                :  3.000       A
 Population analysis output                     : summary and pdos components

 ******************************* Developer Code ********************************
  
 PARALLEL: kpoint=18 : ENDPARALLEL
 no_improve_wvfn

 *******************************************************************************
  

                           -------------------------------
                                      Unit Cell
                           -------------------------------
        Real Lattice(A)                      Reciprocal Lattice(1/A)
    -6.6137480     6.5489070     6.5489070        0.000000000   0.479712516   0.479712516
     6.6137480    -6.4192260     6.4192260        0.475009428  -0.004845569   0.484558084
     6.6137480     6.4192260    -6.4192260        0.475009428   0.484558084  -0.004845569

                       Lattice parameters(A)       Cell Angles
                    a =     11.380599          alpha =  107.850759
                    b =     11.231856          beta  =  110.010902
                    c =     11.231856          gamma =  110.010902

                       Current cell volume =          1112.139136       A**3
                                   density =             2.628663   AMU/A**3
                                           =             4.364997     g/cm^3

                           -------------------------------
                                     Cell Contents
                           -------------------------------
                         Total number of ions in cell =   64
                      Total number of species in cell =    3
                        Max number of any one species =   55

            xxxxxxxxxxxxxxxxxxxxxxxxxxxxxxxxxxxxxxxxxxxxxxxxxxxxxxxxxxxx
            x  Element    Atom        Fractional coordinates of atoms  x
            x            Number           u          v          w      x
            x----------------------------------------------------------x
            x  Al           1         0.063507   0.058872   0.052208   x 
            x  Al           2        -0.010010   0.728766   0.727563   x 
            x  Al           3         0.234372  -0.026666  -0.033164   x 
            x  Al           4         0.297275   0.806746   0.291952   x 
            x  Al           5         0.447559   0.691118  -0.050925   x 
            x  Al           6         0.747059   0.016880   0.743606   x 
            x  Al           7         0.788928   0.310351   0.790113   x 
            x  Ti           1        -0.023924  -0.021956   0.224734   x 
            x  Ti           2         0.005620  -0.015273   0.500300   x 
            x  Ti           3         0.017883   0.018973   0.774397   x 
            x  Ti           4         0.003686   0.258951  -0.001552   x 
            x  Ti           5         0.032251   0.266651   0.265733   x 
            x  Ti           6        -0.050437   0.195313   0.448006   x 
            x  Ti           7        -0.026028   0.233264   0.720081   x 
            x  Ti           8         0.043196   0.545036   0.039860   x 
            x  Ti           9        -0.031660   0.478134   0.238692   x 
            x  Ti          10        -0.003823   0.483369   0.509639   x 
            x  Ti          11        -0.000747   0.769749   0.004973   x 
            x  Ti          12         0.030358   0.768228   0.267213   x 
            x  Ti          13        -0.038657   0.705438   0.460581   x 
            x  Ti          14         0.255386   0.024096   0.255235   x 
            x  Ti          15         0.281296   0.020694   0.522342   x 
            x  Ti          16         0.272819   0.264806   0.032745   x 
            x  Ti          17         0.301161   0.311460   0.305465   x 
            x  Ti          18         0.221721   0.231834   0.485689   x 
            x  Ti          19         0.244565   0.232827   0.749466   x 
            x  Ti          20         0.227749   0.467303  -0.035291   x 
            x  Ti          21         0.248594   0.521986   0.247805   x 
            x  Ti          22         0.272562   0.522797   0.514646   x 
            x  Ti          23         0.195314   0.453740   0.706553   x 
            x  Ti          24         0.254288   0.750016   0.012458   x 
            x  Ti          25         0.226721   0.736886   0.478040   x 
            x  Ti          26         0.251212   0.741057   0.743259   x 
            x  Ti          27         0.498337  -0.024077  -0.001185   x 
            x  Ti          28         0.522967   0.022005   0.284237   x 
            x  Ti          29         0.549983   0.053145   0.549580   x 
            x  Ti          30         0.467468  -0.022359   0.738170   x 
            x  Ti          31         0.445292   0.186066  -0.053896   x 
            x  Ti          32         0.482577   0.231365   0.225719   x 
            x  Ti          33         0.503977   0.267129   0.505667   x 
            x  Ti          34         0.523089   0.268200   0.771885   x 
            x  Ti          35         0.499815   0.481633  -0.000367   x 
            x  Ti          36         0.519862   0.527627   0.282199   x 
            x  Ti          37         0.545557   0.554320   0.552370   x 
            x  Ti          38         0.466318   0.477255   0.730897   x 
            x  Ti          39         0.480598   0.734596   0.220485   x 
            x  Ti          40         0.500588   0.762616   0.496938   x 
            x  Ti          41         0.528304   0.767679   0.769826   x 
            x  Ti          42         0.784455   0.024952   0.013983   x 
            x  Ti          43         0.699020  -0.057177   0.193902   x 
            x  Ti          44         0.737440  -0.024442   0.466915   x 
            x  Ti          45         0.723159   0.233898  -0.022204   x 
            x  Ti          46         0.748111   0.234726   0.248454   x 
            x  Ti          47         0.770345   0.270297   0.527161   x 
            x  Ti          48         0.779114   0.522354   0.020224   x 
            x  Ti          49         0.698741   0.446075   0.200727   x 
            x  Ti          50         0.730604   0.480106   0.475162   x 
            x  Ti          51         0.758886   0.530749   0.752483   x 
            x  Ti          52         0.716536   0.727214  -0.021300   x 
            x  Ti          53         0.753736   0.735280   0.254277   x 
            x  Ti          54         0.770254   0.765150   0.540594   x 
            x  Ti          55         0.804631   0.812818   0.807511   x 
            x  V            1         0.009368   0.509759   0.775876   x 
            x  V            2         0.201073  -0.050407   0.701296   x 
            xxxxxxxxxxxxxxxxxxxxxxxxxxxxxxxxxxxxxxxxxxxxxxxxxxxxxxxxxxxx


                         No user defined ionic velocities

                           -------------------------------
                                   Details of Species
                           -------------------------------

                               Mass of species in AMU
                                    Al   26.9815400
                                    Ti   47.8670000
                                    V   50.9415000

                          Electric Quadrupole Moment (Barn)
                                    Al    0.1466000 Isotope 27
                                    Ti    0.3020000 Isotope 47
                                    V   -0.0520000 Isotope 51

                          Files used for pseudopotentials:
                                    Al 3|2.2|2.2|1.4|4|5|5|30:31:32U2U2
                                    Ti 3|1.8|9|10|11|30U:40:31:32(qc=5.5)
                                    V 3|1.8|1.8|0.6|12|14|16|30U:40:31:32(qc=7)

                           -------------------------------
                              k-Points For BZ Sampling
                           -------------------------------
                       MP grid size for SCF calculation is  6  6  6
                            with an offset of   0.000  0.000  0.000
                       Number of kpoints used =           108

                           -------------------------------
                               Symmetry and Constraints
                           -------------------------------

                      Maximum deviation from symmetry =  0.00000         ANG

                      Number of symmetry operations   =           1
                      Number of ionic constraints     =           3
                      Point group of crystal =     1: C1, 1, 1
                      Space group of crystal =     1: P1, P 1

             Set iprint > 1 for details on symmetry rotations/translations

                         Centre of mass is constrained
             Set iprint > 1 for details of linear ionic constraints

                         Number of cell constraints= 0
                         Cell constraints are:  1 2 3 4 5 6

                         External pressure/stress (GPa)
                          0.00000   0.00000   0.00000
                                    0.00000   0.00000
                                              0.00000
 
+---------------- MEMORY AND SCRATCH DISK ESTIMATES PER PROCESS --------------+
|                                                     Memory          Disk    |
| Baseline code, static data and system overhead      591.0 MB         0.0 MB |
| BLAS internal memory storage                          0.0 MB         0.0 MB |
| Model and support data                              828.2 MB         0.0 MB |
| Electronic energy minimisation requirements         335.2 MB         0.0 MB |
| Force calculation requirements                       11.6 MB         0.0 MB |
| Stress calculation requirements                      12.8 MB         0.0 MB |
|                                               ----------------------------- |
| Approx. total storage required per process         1754.4 MB         0.0 MB |
|                                                                             |
| Requirements will fluctuate during execution and may exceed these estimates |
+-----------------------------------------------------------------------------+
Calculating finite basis set correction with  3 cut-off energies.
Calculating total energy with cut-off of  790.000 eV.
------------------------------------------------------------------------ <-- SCF
SCF loop      Energy           Fermi           Energy gain       Timer   <-- SCF
                               energy          per atom          (sec)   <-- SCF
------------------------------------------------------------------------ <-- SCF
Initial  -8.31718466E+004  0.00000000E+000                        30.03  <-- SCF
      1  -9.02283771E+004  1.14676740E+001   1.10258289E+002     182.48  <-- SCF
      2  -9.24595057E+004  8.83170223E+000   3.48613845E+001     304.46  <-- SCF
      3  -9.25900372E+004  8.62546695E+000   2.03955386E+000     430.51  <-- SCF
      4  -9.26094186E+004  7.80584679E+000   3.02835023E-001     582.53  <-- SCF
      5  -9.25971865E+004  8.01222447E+000  -1.91125959E-001     741.90  <-- SCF
      6  -9.25913946E+004  8.19997561E+000  -9.04991680E-002     892.56  <-- SCF
      7  -9.25886839E+004  8.22204738E+000  -4.23543936E-002    1047.56  <-- SCF
      8  -9.25888459E+004  8.18189250E+000   2.53062220E-003    1200.19  <-- SCF
      9  -9.25884487E+004  8.16117900E+000  -6.20528862E-003    1343.94  <-- SCF
     10  -9.25885018E+004  8.15454612E+000   8.28709825E-004    1499.44  <-- SCF
     11  -9.25883857E+004  8.14726406E+000  -1.81369777E-003    1642.08  <-- SCF
     12  -9.25883618E+004  8.14596194E+000  -3.72553510E-004    1793.47  <-- SCF
     13  -9.25883624E+004  8.14520540E+000   8.61738187E-006    1939.74  <-- SCF
     14  -9.25883600E+004  8.14468264E+000  -3.74522941E-005    2066.80  <-- SCF
     15  -9.25883604E+004  8.14463904E+000   6.70931187E-006    2194.00  <-- SCF
     16  -9.25883600E+004  8.14472300E+000  -6.20817858E-006    2308.17  <-- SCF
     17  -9.25883600E+004  8.14472896E+000   1.48259651E-008    2394.68  <-- SCF
     18  -9.25883600E+004  8.14476994E+000  -2.33988068E-007    2479.94  <-- SCF
------------------------------------------------------------------------ <-- SCF
 
Final energy, E             =  -92588.24474769     eV
Final free energy (E-TS)    =  -92588.36002182     eV
(energies not corrected for finite basis set)
 
NB est. 0K energy (E-0.5TS)      =  -92588.30238475     eV
 
Calculating total energy with cut-off of  795.000 eV.
------------------------------------------------------------------------ <-- SCF
SCF loop      Energy           Fermi           Energy gain       Timer   <-- SCF
                               energy          per atom          (sec)   <-- SCF
------------------------------------------------------------------------ <-- SCF
Initial  -9.25882447E+004  0.00000000E+000                      2505.52  <-- SCF
      1  -9.25883624E+004  8.14517026E+000   1.83999104E-003    2621.79  <-- SCF
      2  -9.25883627E+004  8.14516873E+000   3.35400396E-006    2740.93  <-- SCF
      3  -9.25884451E+004  8.14181032E+000   1.28897745E-003    2881.91  <-- SCF
      4  -9.25883604E+004  8.14489680E+000  -1.32413844E-003    3022.92  <-- SCF
      5  -9.25883609E+004  8.14487390E+000   7.47725065E-006    3153.40  <-- SCF
      6  -9.25883611E+004  8.14489532E+000   4.19508495E-006    3272.22  <-- SCF
      7  -9.25883611E+004  8.14478282E+000  -1.82898040E-007    3360.73  <-- SCF
      8  -9.25883611E+004  8.14477637E+000  -3.03998024E-008    3443.35  <-- SCF
------------------------------------------------------------------------ <-- SCF
 
Final energy, E             =  -92588.24586141     eV
Final free energy (E-TS)    =  -92588.36113528     eV
(energies not corrected for finite basis set)
 
NB est. 0K energy (E-0.5TS)      =  -92588.30349834     eV
 
Calculating total energy with cut-off of  800.000 eV.
------------------------------------------------------------------------ <-- SCF
SCF loop      Energy           Fermi           Energy gain       Timer   <-- SCF
                               energy          per atom          (sec)   <-- SCF
------------------------------------------------------------------------ <-- SCF
Initial  -9.25882458E+004  0.00000000E+000                      3468.90  <-- SCF
      1  -9.25883635E+004  8.14440344E+000   1.83938572E-003    3581.07  <-- SCF
      2  -9.25883638E+004  8.14440205E+000   4.30023000E-006    3701.52  <-- SCF
      3  -9.25884233E+004  8.14747905E+000   9.30577019E-004    3845.24  <-- SCF
      4  -9.25883637E+004  8.14452182E+000  -9.32609214E-004    3986.87  <-- SCF
      5  -9.25883620E+004  8.14474868E+000  -2.66633096E-005    4119.60  <-- SCF
      6  -9.25883622E+004  8.14475933E+000   4.06905187E-006    4238.47  <-- SCF
      7  -9.25883622E+004  8.14474100E+000  -3.45701561E-007    4328.07  <-- SCF
      8  -9.25883622E+004  8.14477648E+000  -2.11935895E-007    4410.86  <-- SCF
------------------------------------------------------------------------ <-- SCF
 
Final energy, E             =  -92588.24690659     eV
Final free energy (E-TS)    =  -92588.36217806     eV
(energies not corrected for finite basis set)
 
NB est. 0K energy (E-0.5TS)      =  -92588.30454233     eV
 
 For future reference: finite basis dEtot/dlog(Ecut) =      -0.171510eV
 Total energy corrected for finite basis set =  -92588.362182 eV

 ************************** Forces **************************
 *                                                          *
 *               Cartesian components (eV/A)                *
 * -------------------------------------------------------- *
 *                         x            y            z      *
 *                                                          *
 * Al              1      0.07119     -0.00735     -0.02115 *
 * Al              2      0.11191      0.13597     -0.00375 *
 * Al              3      0.12129      0.23716      0.05492 *
 * Al              4     -0.00691     -0.09122      0.02915 *
 * Al              5     -0.01220     -0.05364     -0.00910 *
 * Al              6      0.04394      0.14385     -0.00617 *
 * Al              7     -0.00040      0.14927     -0.02230 *
 * Ti              1     -0.22114      0.13762      0.03469 *
 * Ti              2      0.04599      0.13798     -0.03991 *
 * Ti              3      0.12518      0.00790     -0.08945 *
 * Ti              4     -0.12019     -0.04770     -0.07897 *
 * Ti              5      0.02782     -0.12969      0.05710 *
 * Ti              6     -0.07538     -0.16248     -0.04893 *
 * Ti              7      0.04528     -0.03825      0.01288 *
 * Ti              8      0.08134      0.02972      0.04635 *
 * Ti              9      0.11118     -0.03446     -0.10405 *
 * Ti             10      0.00881     -0.00198      0.02647 *
 * Ti             11      0.01859     -0.00342      0.15977 *
 * Ti             12      0.01921     -0.04427     -0.06325 *
 * Ti             13      0.00486     -0.09621      0.03014 *
 * Ti             14      0.13922     -0.09058      0.10457 *
 * Ti             15      0.01632     -0.09034      0.03018 *
 * Ti             16      0.06285     -0.02614      0.01218 *
 * Ti             17      0.09491      0.04108      0.15844 *
 * Ti             18     -0.03845      0.03399     -0.06398 *
 * Ti             19      0.06859      0.03405      0.14875 *
 * Ti             20      0.02087     -0.12059      0.03721 *
 * Ti             21     -0.02345     -0.00131      0.05624 *
 * Ti             22      0.06078      0.02911      0.06832 *
 * Ti             23     -0.09975     -0.14532     -0.06668 *
 * Ti             24     -0.27884     -0.05202     -0.13416 *
 * Ti             25     -0.01857      0.01591     -0.13773 *
 * Ti             26      0.15612      0.13717      0.02857 *
 * Ti             27     -0.20245     -0.02466      0.09608 *
 * Ti             28      0.01560     -0.05207      0.09770 *
 * Ti             29      0.12218     -0.06430      0.15546 *
 * Ti             30      0.00325     -0.03694     -0.05595 *
 * Ti             31     -0.07784     -0.13029     -0.08293 *
 * Ti             32      0.04270      0.06844      0.05122 *
 * Ti             33     -0.05470      0.07555     -0.06654 *
 * Ti             34     -0.00550     -0.04199      0.05097 *
 * Ti             35     -0.07379      0.08398     -0.13598 *
 * Ti             36      0.02822     -0.06323     -0.01916 *
 * Ti             37      0.04763      0.12093      0.11172 *
 * Ti             38      0.08067      0.04533     -0.04550 *
 * Ti             39      0.18632     -0.04471     -0.02818 *
 * Ti             40     -0.10320     -0.04177      0.05789 *
 * Ti             41      0.20608     -0.09631      0.02862 *
 * Ti             42      0.02149      0.00087     -0.11024 *
 * Ti             43     -0.04480     -0.02248     -0.07442 *
 * Ti             44     -0.00091      0.03042      0.01713 *
 * Ti             45     -0.07232      0.07108      0.01399 *
 * Ti             46      0.07556      0.06502      0.00760 *
 * Ti             47     -0.08974     -0.04616     -0.05448 *
 * Ti             48     -0.00326     -0.00745     -0.00338 *
 * Ti             49     -0.04136     -0.10868     -0.18421 *
 * Ti             50     -0.05456      0.09229     -0.04287 *
 * Ti             51     -0.04472      0.00207      0.09755 *
 * Ti             52     -0.06163      0.02123      0.02410 *
 * Ti             53      0.08912     -0.03889      0.00127 *
 * Ti             54     -0.11035     -0.05476     -0.01305 *
 * Ti             55     -0.05803      0.02493     -0.01888 *
 * V               1     -0.26399      0.16301     -0.15327 *
 * V               2     -0.11665     -0.02421      0.07137 *
 *                                                          *
 ************************************************************

 ***************** Stress Tensor *****************
 *                                               *
 *          Cartesian components (GPa)           *
 * --------------------------------------------- *
 *             x             y             z     *
 *                                               *
 *  x      4.195589     -1.054792      0.233172  *
 *  y     -1.054792     -0.609128     -0.206869  *
 *  z      0.233172     -0.206869      2.736502  *
 *                                               *
 *  Pressure:   -2.1077                          *
 *                                               *
 *************************************************

 Pseudo atomic calculation performed for Al 3s2 3p1

 Converged in 15 iterations to a total energy of -107.1308 eV

 Pseudo atomic calculation performed for Ti 3s2 3p6 3d2 4s2

 Converged in 34 iterations to a total energy of -1587.0236 eV

 Pseudo atomic calculation performed for V 3s2 3p6 3d3 4s2

 Converged in 35 iterations to a total energy of -2065.7874 eV
Charge spilling parameter for spin component 1 = 0.08%

            Orbital Populations       
     Ion    Atom   Orbital             Charge
  -------------------------------------------
     Al     1      S                    0.971
     Al     1      Px                   0.673
     Al     1      Py                   0.711
     Al     1      Pz                   0.722
     Al     2      S                    0.950
     Al     2      Px                   0.668
     Al     2      Py                   0.680
     Al     2      Pz                   0.696
     Al     3      S                    0.970
     Al     3      Px                   0.659
     Al     3      Py                   0.683
     Al     3      Pz                   0.708
     Al     4      S                    0.968
     Al     4      Px                   0.710
     Al     4      Py                   0.689
     Al     4      Pz                   0.722
     Al     5      S                    0.968
     Al     5      Px                   0.707
     Al     5      Py                   0.698
     Al     5      Pz                   0.714
     Al     6      S                    0.958
     Al     6      Px                   0.662
     Al     6      Py                   0.700
     Al     6      Pz                   0.673
     Al     7      S                    0.979
     Al     7      Px                   0.695
     Al     7      Py                   0.689
     Al     7      Pz                   0.705
     Ti     1      S                    2.002
     Ti     1      Px                   2.004
     Ti     1      Py                   2.004
     Ti     1      Pz                   2.005
     Ti     1      S                    0.292
     Ti     1      Dzz                  0.511
     Ti     1      Dzy                  0.594
     Ti     1      Dzx                  0.517
     Ti     1      Dxx-yy               0.566
     Ti     1      Dxy                  0.522
     Ti     1      Px                   0.320
     Ti     1      Py                   0.328
     Ti     1      Pz                   0.298
     Ti     2      S                    2.001
     Ti     2      Px                   2.003
     Ti     2      Py                   2.004
     Ti     2      Pz                   2.004
     Ti     2      S                    0.311
     Ti     2      Dzz                  0.562
     Ti     2      Dzy                  0.526
     Ti     2      Dzx                  0.491
     Ti     2      Dxx-yy               0.539
     Ti     2      Dxy                  0.543
     Ti     2      Px                   0.344
     Ti     2      Py                   0.339
     Ti     2      Pz                   0.332
     Ti     3      S                    2.001
     Ti     3      Px                   2.004
     Ti     3      Py                   2.004
     Ti     3      Pz                   2.004
     Ti     3      S                    0.309
     Ti     3      Dzz                  0.634
     Ti     3      Dzy                  0.507
     Ti     3      Dzx                  0.497
     Ti     3      Dxx-yy               0.509
     Ti     3      Dxy                  0.572
     Ti     3      Px                   0.279
     Ti     3      Py                   0.272
     Ti     3      Pz                   0.294
     Ti     4      S                    2.001
     Ti     4      Px                   2.003
     Ti     4      Py                   2.004
     Ti     4      Pz                   2.004
     Ti     4      S                    0.312
     Ti     4      Dzz                  0.587
     Ti     4      Dzy                  0.525
     Ti     4      Dzx                  0.503
     Ti     4      Dxx-yy               0.498
     Ti     4      Dxy                  0.567
     Ti     4      Px                   0.316
     Ti     4      Py                   0.287
     Ti     4      Pz                   0.322
     Ti     5      S                    2.003
     Ti     5      Px                   2.005
     Ti     5      Py                   2.005
     Ti     5      Pz                   2.005
     Ti     5      S                    0.309
     Ti     5      Dzz                  0.511
     Ti     5      Dzy                  0.567
     Ti     5      Dzx                  0.566
     Ti     5      Dxx-yy               0.535
     Ti     5      Dxy                  0.548
     Ti     5      Px                   0.303
     Ti     5      Py                   0.322
     Ti     5      Pz                   0.329
     Ti     6      S                    2.004
     Ti     6      Px                   2.006
     Ti     6      Py                   2.006
     Ti     6      Pz                   2.006
     Ti     6      S                    0.320
     Ti     6      Dzz                  0.535
     Ti     6      Dzy                  0.557
     Ti     6      Dzx                  0.579
     Ti     6      Dxx-yy               0.514
     Ti     6      Dxy                  0.581
     Ti     6      Px                   0.327
     Ti     6      Py                   0.322
     Ti     6      Pz                   0.327
     Ti     7      S                    2.002
     Ti     7      Px                   2.004
     Ti     7      Py                   2.005
     Ti     7      Pz                   2.005
     Ti     7      S                    0.318
     Ti     7      Dzz                  0.529
     Ti     7      Dzy                  0.560
     Ti     7      Dzx                  0.520
     Ti     7      Dxx-yy               0.499
     Ti     7      Dxy                  0.611
     Ti     7      Px                   0.316
     Ti     7      Py                   0.330
     Ti     7      Pz                   0.297
     Ti     8      S                    2.002
     Ti     8      Px                   2.005
     Ti     8      Py                   2.005
     Ti     8      Pz                   2.005
     Ti     8      S                    0.313
     Ti     8      Dzz                  0.549
     Ti     8      Dzy                  0.540
     Ti     8      Dzx                  0.547
     Ti     8      Dxx-yy               0.530
     Ti     8      Dxy                  0.562
     Ti     8      Px                   0.348
     Ti     8      Py                   0.317
     Ti     8      Pz                   0.323
     Ti     9      S                    2.001
     Ti     9      Px                   2.003
     Ti     9      Py                   2.004
     Ti     9      Pz                   2.004
     Ti     9      S                    0.321
     Ti     9      Dzz                  0.506
     Ti     9      Dzy                  0.580
     Ti     9      Dzx                  0.512
     Ti     9      Dxx-yy               0.579
     Ti     9      Dxy                  0.486
     Ti     9      Px                   0.318
     Ti     9      Py                   0.339
     Ti     9      Pz                   0.322
     Ti    10      S                    2.002
     Ti    10      Px                   2.004
     Ti    10      Py                   2.005
     Ti    10      Pz                   2.004
     Ti    10      S                    0.307
     Ti    10      Dzz                  0.532
     Ti    10      Dzy                  0.584
     Ti    10      Dzx                  0.509
     Ti    10      Dxx-yy               0.495
     Ti    10      Dxy                  0.568
     Ti    10      Px                   0.302
     Ti    10      Py                   0.318
     Ti    10      Pz                   0.335
     Ti    11      S                    2.001
     Ti    11      Px                   2.004
     Ti    11      Py                   2.004
     Ti    11      Pz                   2.003
     Ti    11      S                    0.326
     Ti    11      Dzz                  0.537
     Ti    11      Dzy                  0.551
     Ti    11      Dzx                  0.479
     Ti    11      Dxx-yy               0.544
     Ti    11      Dxy                  0.564
     Ti    11      Px                   0.301
     Ti    11      Py                   0.313
     Ti    11      Pz                   0.279
     Ti    12      S                    2.002
     Ti    12      Px                   2.005
     Ti    12      Py                   2.005
     Ti    12      Pz                   2.004
     Ti    12      S                    0.308
     Ti    12      Dzz                  0.519
     Ti    12      Dzy                  0.577
     Ti    12      Dzx                  0.517
     Ti    12      Dxx-yy               0.583
     Ti    12      Dxy                  0.521
     Ti    12      Px                   0.331
     Ti    12      Py                   0.316
     Ti    12      Pz                   0.327
     Ti    13      S                    2.003
     Ti    13      Px                   2.006
     Ti    13      Py                   2.006
     Ti    13      Pz                   2.006
     Ti    13      S                    0.314
     Ti    13      Dzz                  0.518
     Ti    13      Dzy                  0.555
     Ti    13      Dzx                  0.583
     Ti    13      Dxx-yy               0.540
     Ti    13      Dxy                  0.552
     Ti    13      Px                   0.308
     Ti    13      Py                   0.312
     Ti    13      Pz                   0.340
     Ti    14      S                    2.001
     Ti    14      Px                   2.003
     Ti    14      Py                   2.005
     Ti    14      Pz                   2.004
     Ti    14      S                    0.319
     Ti    14      Dzz                  0.561
     Ti    14      Dzy                  0.546
     Ti    14      Dzx                  0.509
     Ti    14      Dxx-yy               0.557
     Ti    14      Dxy                  0.509
     Ti    14      Px                   0.309
     Ti    14      Py                   0.294
     Ti    14      Pz                   0.334
     Ti    15      S                    2.002
     Ti    15      Px                   2.005
     Ti    15      Py                   2.005
     Ti    15      Pz                   2.005
     Ti    15      S                    0.301
     Ti    15      Dzz                  0.514
     Ti    15      Dzy                  0.568
     Ti    15      Dzx                  0.559
     Ti    15      Dxx-yy               0.515
     Ti    15      Dxy                  0.558
     Ti    15      Px                   0.296
     Ti    15      Py                   0.326
     Ti    15      Pz                   0.328
     Ti    16      S                    2.002
     Ti    16      Px                   2.004
     Ti    16      Py                   2.005
     Ti    16      Pz                   2.006
     Ti    16      S                    0.313
     Ti    16      Dzz                  0.561
     Ti    16      Dzy                  0.547
     Ti    16      Dzx                  0.518
     Ti    16      Dxx-yy               0.514
     Ti    16      Dxy                  0.597
     Ti    16      Px                   0.305
     Ti    16      Py                   0.332
     Ti    16      Pz                   0.300
     Ti    17      S                    2.004
     Ti    17      Px                   2.007
     Ti    17      Py                   2.006
     Ti    17      Pz                   2.006
     Ti    17      S                    0.327
     Ti    17      Dzz                  0.547
     Ti    17      Dzy                  0.539
     Ti    17      Dzx                  0.561
     Ti    17      Dxx-yy               0.544
     Ti    17      Dxy                  0.558
     Ti    17      Px                   0.315
     Ti    17      Py                   0.326
     Ti    17      Pz                   0.326
     Ti    18      S                    2.002
     Ti    18      Px                   2.004
     Ti    18      Py                   2.005
     Ti    18      Pz                   2.004
     Ti    18      S                    0.300
     Ti    18      Dzz                  0.520
     Ti    18      Dzy                  0.591
     Ti    18      Dzx                  0.505
     Ti    18      Dxx-yy               0.561
     Ti    18      Dxy                  0.513
     Ti    18      Px                   0.336
     Ti    18      Py                   0.336
     Ti    18      Pz                   0.325
     Ti    19      S                    2.000
     Ti    19      Px                   2.003
     Ti    19      Py                   2.003
     Ti    19      Pz                   2.003
     Ti    19      S                    0.304
     Ti    19      Dzz                  0.560
     Ti    19      Dzy                  0.522
     Ti    19      Dzx                  0.466
     Ti    19      Dxx-yy               0.532
     Ti    19      Dxy                  0.551
     Ti    19      Px                   0.335
     Ti    19      Py                   0.338
     Ti    19      Pz                   0.326
     Ti    20      S                    2.002
     Ti    20      Px                   2.004
     Ti    20      Py                   2.004
     Ti    20      Pz                   2.005
     Ti    20      S                    0.325
     Ti    20      Dzz                  0.554
     Ti    20      Dzy                  0.486
     Ti    20      Dzx                  0.529
     Ti    20      Dxx-yy               0.530
     Ti    20      Dxy                  0.570
     Ti    20      Px                   0.324
     Ti    20      Py                   0.358
     Ti    20      Pz                   0.306
     Ti    21      S                    2.001
     Ti    21      Px                   2.003
     Ti    21      Py                   2.004
     Ti    21      Pz                   2.003
     Ti    21      S                    0.311
     Ti    21      Dzz                  0.558
     Ti    21      Dzy                  0.537
     Ti    21      Dzx                  0.470
     Ti    21      Dxx-yy               0.541
     Ti    21      Dxy                  0.557
     Ti    21      Px                   0.321
     Ti    21      Py                   0.322
     Ti    21      Pz                   0.326
     Ti    22      S                    2.001
     Ti    22      Px                   2.004
     Ti    22      Py                   2.004
     Ti    22      Pz                   2.004
     Ti    22      S                    0.298
     Ti    22      Dzz                  0.530
     Ti    22      Dzy                  0.569
     Ti    22      Dzx                  0.497
     Ti    22      Dxx-yy               0.581
     Ti    22      Dxy                  0.497
     Ti    22      Px                   0.338
     Ti    22      Py                   0.331
     Ti    22      Pz                   0.325
     Ti    23      S                    2.003
     Ti    23      Px                   2.005
     Ti    23      Py                   2.006
     Ti    23      Pz                   2.006
     Ti    23      S                    0.314
     Ti    23      Dzz                  0.523
     Ti    23      Dzy                  0.579
     Ti    23      Dzx                  0.542
     Ti    23      Dxx-yy               0.539
     Ti    23      Dxy                  0.560
     Ti    23      Px                   0.334
     Ti    23      Py                   0.301
     Ti    23      Pz                   0.345
     Ti    24      S                    2.002
     Ti    24      Px                   2.004
     Ti    24      Py                   2.004
     Ti    24      Pz                   2.004
     Ti    24      S                    0.311
     Ti    24      Dzz                  0.574
     Ti    24      Dzy                  0.537
     Ti    24      Dzx                  0.536
     Ti    24      Dxx-yy               0.457
     Ti    24      Dxy                  0.607
     Ti    24      Px                   0.295
     Ti    24      Py                   0.276
     Ti    24      Pz                   0.321
     Ti    25      S                    2.002
     Ti    25      Px                   2.005
     Ti    25      Py                   2.005
     Ti    25      Pz                   2.005
     Ti    25      S                    0.298
     Ti    25      Dzz                  0.519
     Ti    25      Dzy                  0.591
     Ti    25      Dzx                  0.516
     Ti    25      Dxx-yy               0.554
     Ti    25      Dxy                  0.540
     Ti    25      Px                   0.336
     Ti    25      Py                   0.320
     Ti    25      Pz                   0.308
     Ti    26      S                    2.001
     Ti    26      Px                   2.004
     Ti    26      Py                   2.004
     Ti    26      Pz                   2.004
     Ti    26      S                    0.316
     Ti    26      Dzz                  0.550
     Ti    26      Dzy                  0.551
     Ti    26      Dzx                  0.500
     Ti    26      Dxx-yy               0.507
     Ti    26      Dxy                  0.565
     Ti    26      Px                   0.291
     Ti    26      Py                   0.310
     Ti    26      Pz                   0.336
     Ti    27      S                    2.001
     Ti    27      Px                   2.004
     Ti    27      Py                   2.004
     Ti    27      Pz                   2.004
     Ti    27      S                    0.312
     Ti    27      Dzz                  0.573
     Ti    27      Dzy                  0.563
     Ti    27      Dzx                  0.442
     Ti    27      Dxx-yy               0.553
     Ti    27      Dxy                  0.565
     Ti    27      Px                   0.314
     Ti    27      Py                   0.302
     Ti    27      Pz                   0.320
     Ti    28      S                    2.002
     Ti    28      Px                   2.004
     Ti    28      Py                   2.004
     Ti    28      Pz                   2.005
     Ti    28      S                    0.318
     Ti    28      Dzz                  0.551
     Ti    28      Dzy                  0.524
     Ti    28      Dzx                  0.529
     Ti    28      Dxx-yy               0.474
     Ti    28      Dxy                  0.617
     Ti    28      Px                   0.320
     Ti    28      Py                   0.294
     Ti    28      Pz                   0.308
     Ti    29      S                    2.002
     Ti    29      Px                   2.005
     Ti    29      Py                   2.005
     Ti    29      Pz                   2.005
     Ti    29      S                    0.322
     Ti    29      Dzz                  0.546
     Ti    29      Dzy                  0.545
     Ti    29      Dzx                  0.575
     Ti    29      Dxx-yy               0.538
     Ti    29      Dxy                  0.546
     Ti    29      Px                   0.329
     Ti    29      Py                   0.302
     Ti    29      Pz                   0.330
     Ti    30      S                    2.002
     Ti    30      Px                   2.004
     Ti    30      Py                   2.004
     Ti    30      Pz                   2.004
     Ti    30      S                    0.320
     Ti    30      Dzz                  0.535
     Ti    30      Dzy                  0.566
     Ti    30      Dzx                  0.500
     Ti    30      Dxx-yy               0.571
     Ti    30      Dxy                  0.502
     Ti    30      Px                   0.332
     Ti    30      Py                   0.329
     Ti    30      Pz                   0.298
     Ti    31      S                    2.004
     Ti    31      Px                   2.007
     Ti    31      Py                   2.006
     Ti    31      Pz                   2.007
     Ti    31      S                    0.324
     Ti    31      Dzz                  0.500
     Ti    31      Dzy                  0.585
     Ti    31      Dzx                  0.580
     Ti    31      Dxx-yy               0.527
     Ti    31      Dxy                  0.576
     Ti    31      Px                   0.331
     Ti    31      Py                   0.336
     Ti    31      Pz                   0.281
     Ti    32      S                    2.002
     Ti    32      Px                   2.004
     Ti    32      Py                   2.004
     Ti    32      Pz                   2.005
     Ti    32      S                    0.320
     Ti    32      Dzz                  0.588
     Ti    32      Dzy                  0.498
     Ti    32      Dzx                  0.520
     Ti    32      Dxx-yy               0.495
     Ti    32      Dxy                  0.602
     Ti    32      Px                   0.317
     Ti    32      Py                   0.317
     Ti    32      Pz                   0.320
     Ti    33      S                    2.001
     Ti    33      Px                   2.003
     Ti    33      Py                   2.003
     Ti    33      Pz                   2.003
     Ti    33      S                    0.306
     Ti    33      Dzz                  0.556
     Ti    33      Dzy                  0.547
     Ti    33      Dzx                  0.459
     Ti    33      Dxx-yy               0.524
     Ti    33      Dxy                  0.553
     Ti    33      Px                   0.334
     Ti    33      Py                   0.315
     Ti    33      Pz                   0.343
     Ti    34      S                    2.003
     Ti    34      Px                   2.005
     Ti    34      Py                   2.005
     Ti    34      Pz                   2.004
     Ti    34      S                    0.298
     Ti    34      Dzz                  0.518
     Ti    34      Dzy                  0.569
     Ti    34      Dzx                  0.529
     Ti    34      Dxx-yy               0.581
     Ti    34      Dxy                  0.524
     Ti    34      Px                   0.331
     Ti    34      Py                   0.327
     Ti    34      Pz                   0.316
     Ti    35      S                    2.001
     Ti    35      Px                   2.003
     Ti    35      Py                   2.004
     Ti    35      Pz                   2.003
     Ti    35      S                    0.313
     Ti    35      Dzz                  0.562
     Ti    35      Dzy                  0.531
     Ti    35      Dzx                  0.480
     Ti    35      Dxx-yy               0.546
     Ti    35      Dxy                  0.543
     Ti    35      Px                   0.333
     Ti    35      Py                   0.307
     Ti    35      Pz                   0.335
     Ti    36      S                    2.002
     Ti    36      Px                   2.004
     Ti    36      Py                   2.004
     Ti    36      Pz                   2.004
     Ti    36      S                    0.303
     Ti    36      Dzz                  0.586
     Ti    36      Dzy                  0.505
     Ti    36      Dzx                  0.499
     Ti    36      Dxx-yy               0.503
     Ti    36      Dxy                  0.593
     Ti    36      Px                   0.330
     Ti    36      Py                   0.338
     Ti    36      Pz                   0.330
     Ti    37      S                    2.004
     Ti    37      Px                   2.006
     Ti    37      Py                   2.007
     Ti    37      Pz                   2.007
     Ti    37      S                    0.328
     Ti    37      Dzz                  0.521
     Ti    37      Dzy                  0.573
     Ti    37      Dzx                  0.578
     Ti    37      Dxx-yy               0.517
     Ti    37      Dxy                  0.569
     Ti    37      Px                   0.330
     Ti    37      Py                   0.328
     Ti    37      Pz                   0.334
     Ti    38      S                    2.002
     Ti    38      Px                   2.005
     Ti    38      Py                   2.004
     Ti    38      Pz                   2.004
     Ti    38      S                    0.302
     Ti    38      Dzz                  0.501
     Ti    38      Dzy                  0.591
     Ti    38      Dzx                  0.550
     Ti    38      Dxx-yy               0.544
     Ti    38      Dxy                  0.525
     Ti    38      Px                   0.299
     Ti    38      Py                   0.335
     Ti    38      Pz                   0.321
     Ti    39      S                    2.002
     Ti    39      Px                   2.005
     Ti    39      Py                   2.005
     Ti    39      Pz                   2.005
     Ti    39      S                    0.313
     Ti    39      Dzz                  0.570
     Ti    39      Dzy                  0.534
     Ti    39      Dzx                  0.537
     Ti    39      Dxx-yy               0.501
     Ti    39      Dxy                  0.579
     Ti    39      Px                   0.291
     Ti    39      Py                   0.326
     Ti    39      Pz                   0.336
     Ti    40      S                    2.001
     Ti    40      Px                   2.003
     Ti    40      Py                   2.004
     Ti    40      Pz                   2.003
     Ti    40      S                    0.316
     Ti    40      Dzz                  0.575
     Ti    40      Dzy                  0.552
     Ti    40      Dzx                  0.447
     Ti    40      Dxx-yy               0.533
     Ti    40      Dxy                  0.562
     Ti    40      Px                   0.325
     Ti    40      Py                   0.300
     Ti    40      Pz                   0.329
     Ti    41      S                    2.002
     Ti    41      Px                   2.005
     Ti    41      Py                   2.005
     Ti    41      Pz                   2.004
     Ti    41      S                    0.314
     Ti    41      Dzz                  0.482
     Ti    41      Dzy                  0.614
     Ti    41      Dzx                  0.524
     Ti    41      Dxx-yy               0.571
     Ti    41      Dxy                  0.527
     Ti    41      Px                   0.329
     Ti    41      Py                   0.326
     Ti    41      Pz                   0.273
     Ti    42      S                    2.002
     Ti    42      Px                   2.004
     Ti    42      Py                   2.004
     Ti    42      Pz                   2.004
     Ti    42      S                    0.323
     Ti    42      Dzz                  0.531
     Ti    42      Dzy                  0.567
     Ti    42      Dzx                  0.518
     Ti    42      Dxx-yy               0.609
     Ti    42      Dxy                  0.474
     Ti    42      Px                   0.303
     Ti    42      Py                   0.309
     Ti    42      Pz                   0.316
     Ti    43      S                    2.003
     Ti    43      Px                   2.006
     Ti    43      Py                   2.006
     Ti    43      Pz                   2.006
     Ti    43      S                    0.331
     Ti    43      Dzz                  0.532
     Ti    43      Dzy                  0.567
     Ti    43      Dzx                  0.562
     Ti    43      Dxx-yy               0.520
     Ti    43      Dxy                  0.579
     Ti    43      Px                   0.333
     Ti    43      Py                   0.327
     Ti    43      Pz                   0.337
     Ti    44      S                    2.002
     Ti    44      Px                   2.004
     Ti    44      Py                   2.004
     Ti    44      Pz                   2.004
     Ti    44      S                    0.327
     Ti    44      Dzz                  0.585
     Ti    44      Dzy                  0.487
     Ti    44      Dzx                  0.496
     Ti    44      Dxx-yy               0.533
     Ti    44      Dxy                  0.577
     Ti    44      Px                   0.296
     Ti    44      Py                   0.323
     Ti    44      Pz                   0.336
     Ti    45      S                    2.002
     Ti    45      Px                   2.004
     Ti    45      Py                   2.004
     Ti    45      Pz                   2.004
     Ti    45      S                    0.312
     Ti    45      Dzz                  0.512
     Ti    45      Dzy                  0.588
     Ti    45      Dzx                  0.523
     Ti    45      Dxx-yy               0.523
     Ti    45      Dxy                  0.565
     Ti    45      Px                   0.295
     Ti    45      Py                   0.326
     Ti    45      Pz                   0.316
     Ti    46      S                    2.001
     Ti    46      Px                   2.003
     Ti    46      Py                   2.003
     Ti    46      Pz                   2.003
     Ti    46      S                    0.313
     Ti    46      Dzz                  0.585
     Ti    46      Dzy                  0.512
     Ti    46      Dzx                  0.479
     Ti    46      Dxx-yy               0.533
     Ti    46      Dxy                  0.544
     Ti    46      Px                   0.334
     Ti    46      Py                   0.336
     Ti    46      Pz                   0.334
     Ti    47      S                    2.003
     Ti    47      Px                   2.005
     Ti    47      Py                   2.005
     Ti    47      Pz                   2.006
     Ti    47      S                    0.289
     Ti    47      Dzz                  0.570
     Ti    47      Dzy                  0.522
     Ti    47      Dzx                  0.540
     Ti    47      Dxx-yy               0.504
     Ti    47      Dxy                  0.572
     Ti    47      Px                   0.308
     Ti    47      Py                   0.331
     Ti    47      Pz                   0.328
     Ti    48      S                    2.002
     Ti    48      Px                   2.005
     Ti    48      Py                   2.004
     Ti    48      Pz                   2.005
     Ti    48      S                    0.306
     Ti    48      Dzz                  0.500
     Ti    48      Dzy                  0.596
     Ti    48      Dzx                  0.556
     Ti    48      Dxx-yy               0.532
     Ti    48      Dxy                  0.527
     Ti    48      Px                   0.300
     Ti    48      Py                   0.333
     Ti    48      Pz                   0.328
     Ti    49      S                    2.003
     Ti    49      Px                   2.005
     Ti    49      Py                   2.006
     Ti    49      Pz                   2.006
     Ti    49      S                    0.318
     Ti    49      Dzz                  0.528
     Ti    49      Dzy                  0.566
     Ti    49      Dzx                  0.563
     Ti    49      Dxx-yy               0.526
     Ti    49      Dxy                  0.564
     Ti    49      Px                   0.338
     Ti    49      Py                   0.320
     Ti    49      Pz                   0.339
     Ti    50      S                    2.002
     Ti    50      Px                   2.005
     Ti    50      Py                   2.005
     Ti    50      Pz                   2.005
     Ti    50      S                    0.313
     Ti    50      Dzz                  0.607
     Ti    50      Dzy                  0.480
     Ti    50      Dzx                  0.496
     Ti    50      Dxx-yy               0.516
     Ti    50      Dxy                  0.615
     Ti    50      Px                   0.310
     Ti    50      Py                   0.327
     Ti    50      Pz                   0.311
     Ti    51      S                    2.001
     Ti    51      Px                   2.004
     Ti    51      Py                   2.004
     Ti    51      Pz                   2.004
     Ti    51      S                    0.314
     Ti    51      Dzz                  0.517
     Ti    51      Dzy                  0.529
     Ti    51      Dzx                  0.519
     Ti    51      Dxx-yy               0.534
     Ti    51      Dxy                  0.585
     Ti    51      Px                   0.332
     Ti    51      Py                   0.321
     Ti    51      Pz                   0.286
     Ti    52      S                    2.002
     Ti    52      Px                   2.004
     Ti    52      Py                   2.005
     Ti    52      Pz                   2.005
     Ti    52      S                    0.303
     Ti    52      Dzz                  0.523
     Ti    52      Dzy                  0.575
     Ti    52      Dzx                  0.533
     Ti    52      Dxx-yy               0.587
     Ti    52      Dxy                  0.483
     Ti    52      Px                   0.323
     Ti    52      Py                   0.331
     Ti    52      Pz                   0.319
     Ti    53      S                    2.001
     Ti    53      Px                   2.003
     Ti    53      Py                   2.003
     Ti    53      Pz                   2.003
     Ti    53      S                    0.321
     Ti    53      Dzz                  0.566
     Ti    53      Dzy                  0.547
     Ti    53      Dzx                  0.454
     Ti    53      Dxx-yy               0.529
     Ti    53      Dxy                  0.553
     Ti    53      Px                   0.335
     Ti    53      Py                   0.310
     Ti    53      Pz                   0.333
     Ti    54      S                    2.003
     Ti    54      Px                   2.005
     Ti    54      Py                   2.005
     Ti    54      Pz                   2.005
     Ti    54      S                    0.326
     Ti    54      Dzz                  0.559
     Ti    54      Dzy                  0.507
     Ti    54      Dzx                  0.547
     Ti    54      Dxx-yy               0.457
     Ti    54      Dxy                  0.660
     Ti    54      Px                   0.284
     Ti    54      Py                   0.294
     Ti    54      Pz                   0.330
     Ti    55      S                    2.003
     Ti    55      Px                   2.006
     Ti    55      Py                   2.006
     Ti    55      Pz                   2.006
     Ti    55      S                    0.326
     Ti    55      Dzz                  0.545
     Ti    55      Dzy                  0.564
     Ti    55      Dzx                  0.564
     Ti    55      Dxx-yy               0.517
     Ti    55      Dxy                  0.578
     Ti    55      Px                   0.291
     Ti    55      Py                   0.304
     Ti    55      Pz                   0.317
      V     1      S                    2.001
      V     1      Px                   2.003
      V     1      Py                   2.003
      V     1      Pz                   2.004
      V     1      Dzz                  0.652
      V     1      Dzy                  0.753
      V     1      Dzx                  0.872
      V     1      Dxx-yy               0.626
      V     1      Dxy                  0.840
      V     1      S                    0.345
      V     1      Px                   0.316
      V     1      Py                   0.330
      V     1      Pz                   0.299
      V     2      S                    2.002
      V     2      Px                   2.004
      V     2      Py                   2.004
      V     2      Pz                   2.004
      V     2      Dzz                  0.625
      V     2      Dzy                  0.831
      V     2      Dzx                  0.846
      V     2      Dxx-yy               0.682
      V     2      Dxy                  0.796
      V     2      S                    0.388
      V     2      Px                   0.335
      V     2      Py                   0.323
      V     2      Pz                   0.310
  -------------------------------------------
                           Total:     706.999
  -------------------------------------------

     Atomic Populations (Mulliken)
     -----------------------------
Species          Ion     s       p       d       f      Total   Charge (e)
==========================================================================
  Al              1     0.971   2.106   0.000   0.000   3.077    -0.077
  Al              2     0.950   2.044   0.000   0.000   2.994     0.006
  Al              3     0.970   2.050   0.000   0.000   3.020    -0.020
  Al              4     0.968   2.120   0.000   0.000   3.088    -0.088
  Al              5     0.968   2.119   0.000   0.000   3.087    -0.087
  Al              6     0.958   2.034   0.000   0.000   2.992     0.008
  Al              7     0.979   2.089   0.000   0.000   3.068    -0.068
  Ti              1     2.294   6.960   2.710   0.000  11.964     0.036
  Ti              2     2.312   7.025   2.660   0.000  11.998     0.002
  Ti              3     2.311   6.857   2.719   0.000  11.887     0.113
  Ti              4     2.312   6.935   2.679   0.000  11.927     0.073
  Ti              5     2.312   6.969   2.726   0.000  12.007    -0.007
  Ti              6     2.324   6.994   2.765   0.000  12.084    -0.084
  Ti              7     2.320   6.957   2.720   0.000  11.997     0.003
  Ti              8     2.315   7.002   2.727   0.000  12.044    -0.044
  Ti              9     2.322   6.990   2.662   0.000  11.974     0.026
  Ti             10     2.309   6.967   2.689   0.000  11.964     0.036
  Ti             11     2.327   6.903   2.676   0.000  11.906     0.094
  Ti             12     2.310   6.988   2.717   0.000  12.015    -0.015
  Ti             13     2.317   6.977   2.748   0.000  12.043    -0.043
  Ti             14     2.320   6.947   2.682   0.000  11.949     0.051
  Ti             15     2.303   6.963   2.715   0.000  11.981     0.019
  Ti             16     2.316   6.952   2.735   0.000  12.003    -0.003
  Ti             17     2.330   6.986   2.749   0.000  12.065    -0.065
  Ti             18     2.302   7.010   2.691   0.000  12.002    -0.002
  Ti             19     2.305   7.007   2.632   0.000  11.943     0.057
  Ti             20     2.327   7.000   2.669   0.000  11.996     0.004
  Ti             21     2.312   6.979   2.664   0.000  11.954     0.046
  Ti             22     2.299   7.005   2.673   0.000  11.978     0.022
  Ti             23     2.318   6.996   2.743   0.000  12.057    -0.057
  Ti             24     2.313   6.904   2.712   0.000  11.930     0.070
  Ti             25     2.300   6.979   2.720   0.000  11.999     0.001
  Ti             26     2.317   6.948   2.674   0.000  11.939     0.061
  Ti             27     2.313   6.948   2.695   0.000  11.957     0.043
  Ti             28     2.320   6.936   2.696   0.000  11.952     0.048
  Ti             29     2.324   6.977   2.751   0.000  12.052    -0.052
  Ti             30     2.322   6.971   2.675   0.000  11.967     0.033
  Ti             31     2.328   6.967   2.768   0.000  12.062    -0.062
  Ti             32     2.322   6.968   2.703   0.000  11.993     0.007
  Ti             33     2.307   7.000   2.639   0.000  11.946     0.054
  Ti             34     2.300   6.988   2.720   0.000  12.008    -0.008
  Ti             35     2.314   6.986   2.663   0.000  11.963     0.037
  Ti             36     2.304   7.011   2.686   0.000  12.001    -0.001
  Ti             37     2.333   7.012   2.757   0.000  12.102    -0.102
  Ti             38     2.304   6.969   2.711   0.000  11.984     0.016
  Ti             39     2.315   6.966   2.720   0.000  12.002    -0.002
  Ti             40     2.317   6.964   2.669   0.000  11.951     0.049
  Ti             41     2.316   6.942   2.719   0.000  11.977     0.023
  Ti             42     2.325   6.940   2.699   0.000  11.965     0.035
  Ti             43     2.334   7.014   2.760   0.000  12.108    -0.108
  Ti             44     2.329   6.967   2.678   0.000  11.973     0.027
  Ti             45     2.313   6.949   2.710   0.000  11.973     0.027
  Ti             46     2.313   7.014   2.652   0.000  11.979     0.021
  Ti             47     2.292   6.983   2.709   0.000  11.983     0.017
  Ti             48     2.308   6.974   2.712   0.000  11.994     0.006
  Ti             49     2.321   7.014   2.748   0.000  12.082    -0.082
  Ti             50     2.315   6.962   2.715   0.000  11.992     0.008
  Ti             51     2.315   6.951   2.683   0.000  11.949     0.051
  Ti             52     2.305   6.987   2.701   0.000  11.993     0.007
  Ti             53     2.321   6.987   2.649   0.000  11.957     0.043
  Ti             54     2.329   6.922   2.730   0.000  11.981     0.019
  Ti             55     2.330   6.930   2.768   0.000  12.028    -0.028
  V               1     2.347   6.955   3.743   0.000  13.044    -0.044
  V               2     2.390   6.980   3.780   0.000  13.150    -0.150
==========================================================================

                 Bond                   Population      Length (A)
======================================================================
             Ti 31 -- Ti 34                  0.21        2.68281
             Ti 23 -- V 1                    0.18        2.68681
             Ti 15 -- V 2                    0.24        2.69302
              Al 1 -- Ti 1                   0.28        2.71094
             Ti 37 -- Ti 38                  0.20        2.71121
              Al 4 -- Ti 25                  0.31        2.71143
             Ti 52 -- Ti 55                  0.20        2.72391
              Al 5 -- Ti 41                  0.29        2.72471
             Ti 26 -- V 2                    0.25        2.72788
              Al 1 -- Ti 4                   0.32        2.73421
             Ti 48 -- Ti 49                  0.20        2.73472
             Ti 8  -- V 1                    0.18        2.73692
              Al 7 -- Ti 45                  0.36        2.73700
             Ti 47 -- Ti 50                  0.25        2.73704
             Ti 54 -- Ti 55                  0.15        2.73814
             Ti 24 -- V 1                    0.24        2.73846
              Al 2 -- V 1                    0.35        2.73892
             Ti 3  -- V 2                    0.26        2.74208
             Ti 17 -- Ti 18                  0.22        2.74296
             Ti 20 -- Ti 23                  0.23        2.74320
             Ti 5  -- Ti 6                   0.22        2.74354
             Ti 22 -- Ti 25                  0.25        2.74614
              Al 7 -- Ti 51                  0.26        2.74687
             Ti 16 -- Ti 31                  0.17        2.74766
              Al 4 -- Ti 39                  0.26        2.74923
             Ti 12 -- Ti 13                  0.19        2.74933
             Ti 13 -- V 2                    0.14        2.74940
              Al 5 -- Ti 24                  0.26        2.74977
             Ti 36 -- Ti 39                  0.28        2.75154
             Ti 48 -- Ti 52                  0.27        2.75159
             Ti 31 -- V 2                    0.12        2.75316
              Al 1 -- Al 3                   0.28        2.75929
             Ti 16 -- Ti 20                  0.25        2.75966
             Ti 6  -- Ti 47                  0.14        2.75996
             Ti 37 -- Ti 40                  0.25        2.75997
             Ti 47 -- V 1                    0.16        2.76098
             Ti 30 -- Ti 41                  0.24        2.76228
              Al 2 -- Al 3                   0.30        2.76284
              Al 4 -- Ti 14                  0.31        2.76336
             Ti 34 -- Ti 38                  0.30        2.76410
             Ti 1  -- Ti 12                  0.25        2.76531
             Ti 28 -- Ti 32                  0.26        2.76648
              Al 7 -- Ti 47                  0.26        2.76816
             Ti 42 -- Ti 45                  0.25        2.76961
             Ti 10 -- Ti 23                  0.08        2.77046
             Ti 5  -- Ti 17                  0.20        2.77339
              Al 3 -- Ti 24                  0.40        2.77542
             Ti 29 -- Ti 33                  0.21        2.77582
             Ti 46 -- Ti 49                  0.25        2.77939
              Al 5 -- Ti 23                  0.20        2.77973
             Ti 11 -- Ti 51                  0.21        2.78016
             Ti 5  -- Ti 9                   0.28        2.78156
             Ti 7  -- Ti 20                  0.14        2.78312
             Ti 42 -- Ti 43                  0.21        2.78456
              Al 5 -- Ti 35                  0.28        2.78532
             Ti 17 -- Ti 37                  0.14        2.78536
             Ti 28 -- Ti 29                  0.14        2.78554
             Ti 15 -- Ti 18                  0.25        2.78587
              Al 7 -- Ti 7                   0.27        2.78699
              Al 6 -- Ti 29                  0.28        2.78743
             Ti 18 -- Ti 38                  0.17        2.78919
              Al 3 -- V 2                    0.27        2.78922
             Ti 27 -- Ti 43                  0.22        2.79485
             Ti 3  -- Ti 54                  0.10        2.79505
             Ti 2  -- Ti 19                  0.23        2.79577
              Al 1 -- Ti 14                  0.25        2.80053
              Al 7 -- Ti 29                  0.27        2.80176
              Al 5 -- Ti 39                  0.28        2.80179
             Ti 28 -- Ti 47                  0.13        2.80219
             Ti 36 -- Ti 49                  0.16        2.80320
             Ti 26 -- Ti 27                  0.20        2.80409
             Ti 15 -- Ti 34                  0.11        2.80449
             Ti 30 -- V 2                    0.21        2.80521
             Ti 27 -- Ti 31                  0.17        2.80593
             Ti 22 -- Ti 23                  0.24        2.80637
              Al 7 -- Ti 8                   0.22        2.80741
             Ti 37 -- Ti 50                  0.18        2.80891
             Ti 28 -- Ti 43                  0.15        2.80935
             Ti 8  -- Ti 20                  0.18        2.81117
             Ti 2  -- V 2                    0.18        2.81252
              Al 6 -- Ti 55                  0.27        2.81287
             Ti 5  -- Ti 42                  0.19        2.81333
             Ti 17 -- Ti 32                  0.20        2.81373
             Ti 21 -- Ti 40                  0.21        2.81527
             Ti 14 -- Ti 33                  0.22        2.81570
             Ti 3  -- Ti 7                   0.24        2.81599
              Al 4 -- Ti 12                  0.26        2.81799
             Ti 13 -- Ti 54                  0.18        2.82012
             Ti 43 -- Ti 53                  0.25        2.82049
              Al 7 -- Ti 34                  0.27        2.82055
              Al 2 -- Ti 13                  0.27        2.82098
             Ti 25 -- Ti 30                  0.18        2.82180
              Al 1 -- Ti 16                  0.27        2.82271
             Ti 12 -- Ti 48                  0.14        2.82281
             Ti 2  -- Ti 6                   0.21        2.82391
             Ti 7  -- V 1                    0.18        2.82442
             Ti 9  -- Ti 49                  0.20        2.82483
              Al 7 -- V 1                    0.23        2.82565
             Ti 16 -- Ti 17                  0.26        2.82588
             Ti 39 -- Ti 44                  0.18        2.82594
              Al 1 -- Ti 17                  0.18        2.82680
             Ti 44 -- Ti 54                  0.25        2.82858
             Ti 29 -- Ti 30                  0.24        2.82940
              Al 4 -- Ti 24                  0.29        2.83009
             Ti 17 -- Ti 21                  0.22        2.83028
             Ti 43 -- Ti 44                  0.19        2.83029
             Ti 32 -- Ti 50                  0.18        2.83091
             Ti 7  -- Ti 47                  0.18        2.83093
              Al 5 -- Ti 52                  0.26        2.83132
             Ti 5  -- Ti 22                  0.17        2.83262
             Ti 27 -- Ti 30                  0.16        2.83365
             Ti 8  -- Ti 21                  0.18        2.83454
             Ti 2  -- Ti 53                  0.25        2.83522
              Al 6 -- Ti 40                  0.29        2.83686
             Ti 36 -- Ti 54                  0.13        2.83736
             Ti 38 -- Ti 52                  0.13        2.83746
             Ti 10 -- Ti 13                  0.19        2.83758
              Al 5 -- Ti 43                  0.20        2.83811
             Ti 35 -- Ti 49                  0.15        2.83876
             Ti 6  -- Ti 18                  0.20        2.84036
             Ti 10 -- Ti 26                  0.20        2.84056
              Al 1 -- Ti 3                   0.28        2.84280
             Ti 37 -- Ti 51                  0.17        2.84364
             Ti 11 -- Ti 55                  0.20        2.84391
             Ti 7  -- Ti 44                  0.19        2.84478
              Al 1 -- Ti 55                  0.22        2.84612
             Ti 15 -- Ti 29                  0.15        2.84698
             Ti 13 -- Ti 25                  0.13        2.84723
             Ti 16 -- Ti 32                  0.16        2.84766
             Ti 8  -- Ti 11                  0.17        2.84781
             Ti 11 -- Ti 12                  0.18        2.85002
             Ti 8  -- Ti 48                  0.17        2.85201
             Ti 9  -- Ti 45                  0.18        2.85220
             Ti 6  -- Ti 7                   0.10        2.85251
             Ti 51 -- Ti 55                  0.17        2.85320
             Ti 12 -- Ti 25                  0.19        2.85535
             Ti 30 -- Ti 45                  0.18        2.85556
             Ti 36 -- Ti 37                  0.17        2.85633
             Ti 8  -- Ti 9                   0.24        2.85843
             Ti 10 -- V 1                    0.18        2.85857
             Ti 41 -- Ti 52                  0.15        2.86006
             Ti 19 -- Ti 35                  0.24        2.86129
              Al 6 -- Ti 4                   0.31        2.86146
             Ti 41 -- Ti 55                  0.13        2.86217
             Ti 49 -- Ti 50                  0.19        2.86299
             Ti 2  -- Ti 13                  0.13        2.86350
             Ti 19 -- Ti 23                  0.24        2.86414
             Ti 22 -- Ti 37                  0.15        2.86559
             Ti 34 -- Ti 45                  0.18        2.86780
             Ti 22 -- Ti 41                  0.18        2.86878
             Ti 50 -- Ti 51                  0.14        2.86908
              Al 2 -- Ti 26                  0.25        2.86942
             Ti 51 -- V 1                    0.17        2.86985
             Ti 1  -- Ti 52                  0.16        2.87115
              Al 4 -- Ti 29                  0.17        2.87245
             Ti 6  -- Ti 43                  0.13        2.87269
             Ti 15 -- Ti 25                  0.14        2.87328
             Ti 6  -- Ti 46                  0.17        2.87434
             Ti 31 -- Ti 32                  0.20        2.87451
             Ti 9  -- Ti 25                  0.19        2.87596
             Ti 41 -- Ti 42                  0.15        2.87643
             Ti 4  -- Ti 5                   0.16        2.87740
             Ti 34 -- Ti 48                  0.12        2.87793
             Ti 12 -- Ti 15                  0.10        2.87807
             Ti 27 -- Ti 46                  0.22        2.87836
              Al 2 -- Ti 55                  0.24        2.87876
             Ti 10 -- Ti 46                  0.21        2.87898
             Ti 4  -- Ti 21                  0.22        2.87922
             Ti 25 -- Ti 26                  0.12        2.87941
             Ti 18 -- Ti 19                  0.17        2.88027
              Al 5 -- Ti 27                  0.23        2.88048
             Ti 29 -- Ti 44                  0.19        2.88180
             Ti 3  -- Ti 16                  0.05        2.88185
             Ti 8  -- Ti 24                  0.09        2.88474
              Al 3 -- Ti 31                  0.20        2.88506
             Ti 16 -- Ti 36                  0.13        2.88562
              Al 2 -- Ti 50                  0.22        2.88567
             Ti 11 -- Ti 14                  0.22        2.88605
              Al 6 -- Ti 42                  0.26        2.88651
             Ti 13 -- Ti 53                  0.14        2.88708
             Ti 50 -- Ti 54                  0.13        2.88714
             Ti 19 -- V 2                    0.18        2.88823
             Ti 1  -- Ti 18                  0.16        2.88923
              Al 3 -- Ti 27                  0.23        2.88958
             Ti 35 -- Ti 53                  0.24        2.89151
             Ti 31 -- Ti 45                  0.11        2.89224
             Ti 35 -- Ti 38                  0.16        2.89261
             Ti 6  -- Ti 23                  0.13        2.89794
             Ti 10 -- Ti 50                  0.15        2.89837
              Al 4 -- Ti 21                  0.25        2.89990
              Al 1 -- Ti 11                  0.25        2.90082
             Ti 6  -- Ti 10                  0.18        2.90333
             Ti 5  -- Ti 18                  0.13        2.90335
              Al 3 -- Ti 32                  0.24        2.90564
             Ti 37 -- Ti 54                  0.25        2.90574
             Ti 2  -- Ti 44                  0.18        2.90589
             Ti 28 -- Ti 39                  0.15        2.90643
             Ti 19 -- Ti 31                  0.13        2.90715
             Ti 33 -- Ti 51                  0.22        2.90740
             Ti 30 -- Ti 31                  0.15        2.90763
             Ti 49 -- Ti 53                  0.20        2.90829
             Ti 42 -- Ti 55                  0.22        2.90846
              Al 2 -- Ti 54                  0.18        2.90897
             Ti 23 -- Ti 38                  0.17        2.91167
             Ti 21 -- Ti 22                  0.15        2.91192
              Al 4 -- Ti 28                  0.24        2.91221
              Al 4 -- Ti 8                   0.19        2.91473
             Ti 31 -- Ti 49                  0.11        2.91483
             Ti 15 -- Ti 30                  0.12        2.91618
             Ti 1  -- Ti 14                  0.15        2.91718
             Ti 33 -- Ti 34                  0.17        2.91879
             Ti 1  -- Ti 43                  0.11        2.92117
             Ti 14 -- Ti 17                  0.19        2.92215
             Ti 28 -- Ti 44                  0.16        2.92231
             Ti 17 -- Ti 33                  0.12        2.92451
              Al 1 -- Ti 42                  0.20        2.92464
             Ti 20 -- Ti 35                  0.17        2.92501
             Ti 24 -- Ti 39                  0.18        2.92534
             Ti 6  -- Ti 44                  0.19        2.92565
             Ti 40 -- Ti 54                  0.13        2.92601
             Ti 14 -- Ti 15                  0.19        2.92602
             Ti 45 -- Ti 48                  0.17        2.92630
             Ti 4  -- Ti 16                  0.16        2.92799
             Ti 9  -- Ti 10                  0.17        2.92965
             Ti 32 -- Ti 46                  0.15        2.93029
             Ti 2  -- Ti 3                   0.13        2.93062
             Ti 23 -- Ti 26                  0.18        2.93064
             Ti 37 -- Ti 55                  0.10        2.93135
             Ti 1  -- Ti 5                   0.12        2.93150
             Ti 2  -- Ti 15                  0.13        2.93380
             Ti 4  -- Ti 7                   0.13        2.93763
             Ti 46 -- Ti 47                  0.17        2.94023
             Ti 29 -- Ti 40                  0.20        2.94077
             Ti 20 -- Ti 24                  0.12        2.94120
             Ti 33 -- Ti 37                  0.18        2.94147
             Ti 1  -- Ti 42                  0.12        2.94187
             Ti 39 -- Ti 40                  0.15        2.94292
             Ti 38 -- Ti 41                  0.15        2.94432
             Ti 33 -- Ti 47                  0.13        2.94434
             Ti 52 -- Ti 53                  0.14        2.94499
             Ti 20 -- Ti 39                  0.16        2.94768
             Ti 3  -- Ti 55                  0.19        2.94782
             Ti 39 -- Ti 43                  0.19        2.94878
             Ti 4  -- Ti 8                   0.24        2.94878
             Ti 45 -- Ti 46                  0.15        2.95166
             Ti 40 -- Ti 41                  0.14        2.95235
             Ti 43 -- Ti 46                  0.16        2.95252
             Ti 21 -- Ti 36                  0.14        2.95278
             Ti 7  -- Ti 23                  0.06        2.95368
             Ti 20 -- V 1                    0.13        2.95400
             Ti 20 -- Ti 21                  0.16        2.95477
              Al 6 -- Ti 44                  0.19        2.95527
             Ti 25 -- Ti 40                  0.14        2.95567
              Al 4 -- Ti 40                  0.18        2.95617
             Ti 32 -- Ti 33                  0.13        2.95670
             Ti 14 -- Ti 28                  0.17        2.95886
             Ti 36 -- Ti 50                  0.15        2.96010
             Ti 11 -- Ti 24                  0.19        2.96059
             Ti 9  -- Ti 48                  0.12        2.96109
              Al 5 -- Ti 26                  0.19        2.96128
              Al 3 -- Ti 16                  0.16        2.96128
             Ti 32 -- Ti 49                  0.19        2.96207
             Ti 26 -- Ti 41                  0.14        2.96290
              Al 2 -- Ti 11                  0.23        2.96548
             Ti 13 -- Ti 49                  0.10        2.96573
             Ti 10 -- Ti 47                  0.11        2.96596
             Ti 19 -- Ti 34                  0.15        2.96634
             Ti 35 -- Ti 48                  0.12        2.96701
             Ti 37 -- Ti 41                  0.17        2.96795
             Ti 35 -- Ti 36                  0.15        2.96819
             Ti 43 -- Ti 52                  0.21        2.96956
             Ti 48 -- Ti 51                  0.14        2.96988
              Al 2 -- Ti 51                  0.15        2.97059
             Ti 1  -- Ti 2                   0.16        2.97094
             Ti 26 -- Ti 30                  0.09        2.97238
              Al 6 -- Ti 3                   0.19        2.97248
             Ti 9  -- Ti 12                  0.15        2.97467
             Ti 17 -- Ti 36                  0.15        2.97597
             Ti 30 -- Ti 34                  0.10        2.97642
              Al 2 -- V 2                    0.18        2.97751
              Al 5 -- Ti 20                  0.21        2.97918
             Ti 16 -- Ti 19                  0.11        2.97927
             Ti 31 -- Ti 35                  0.16        2.97969
             Ti 11 -- Ti 52                  0.12        2.97982
             Ti 22 -- Ti 38                  0.12        2.98188
             Ti 24 -- Ti 26                  0.16        2.98197
             Ti 27 -- Ti 28                  0.15        2.98197
             Ti 17 -- Ti 22                  0.12        2.98220
              Al 3 -- Ti 3                   0.14        2.98393
             Ti 7  -- Ti 19                  0.13        2.98464
              Al 5 -- Ti 38                  0.19        2.98679
             Ti 29 -- Ti 47                  0.16        2.98731
             Ti 12 -- Ti 53                  0.16        2.98754
             Ti 1  -- Ti 11                  0.13        2.99386
              Al 7 -- Ti 48                  0.19        2.99484
             Ti 39 -- Ti 53                  0.15        2.99685
======================================================================


Writing analysis data to sqs_bcc_sc4x4x4_Ti55Al7V2_frame0_04.castep_bin

Writing model to sqs_bcc_sc4x4x4_Ti55Al7V2_frame0_04.check
 
 A BibTeX formatted list of references used in this run has been written to 
 sqs_bcc_sc4x4x4_Ti55Al7V2_frame0_04.bib
 
Initialisation time =     21.42 s
Calculation time    =   4730.07 s
Finalisation time   =     82.57 s
Total time          =   4834.06 s
Peak Memory Use     = 2329012 kB
 
Overall parallel efficiency rating: Mediocre (53%)
 
Data was distributed by:-
G-vector (16-way); efficiency rating: Mediocre (54%)
k-point (18-way); efficiency rating: Excellent (94%)
