 +-------------------------------------------------+
 |                                                 |
 |      CCC   AA    SSS  TTTTT  EEEEE  PPPP        |
 |     C     A  A  S       T    E      P   P       |
 |     C     AAAA   SS     T    EEE    PPPP        |
 |     C     A  A     S    T    E      P           |
 |      CCC  A  A  SSS     T    EEEEE  P           |
 |                                                 |
 +-------------------------------------------------+
 |                                                 |
 | Welcome to Academic Release CASTEP version 24.1 |
 | Ab Initio Total Energy Program                  |
 |                                                 |
 | Authors:                                        |
 | M. Segall, M. Probert, C. Pickard, P. Hasnip,   |
 | S. Clark, K. Refson, J. R. Yates,               |
 | A. Bartok-Partay, M. Payne                      |
 |                                                 |
 | Contributors:                                   |
 | P. Lindan, P. Haynes, J. White, V. Milman,      |
 | N. Govind, M. Gibson, P. Tulip, V. Cocula,      |
 | B. Montanari, D. Quigley, M. Glover,            |
 | L. Bernasconi, A. Perlov, M. Plummer,           |
 | E. McNellis, J. Meyer, J. Gale, D. Jochym       |
 | J. Aarons, B. Walker, R. Gillen, D. Jones       |
 | T. Green, I. J. Bush, C. J. Armstrong,          |
 | E. J. Higgins, E. L. Brown, M. S. McFly,        |
 | J. Wilkins, B-C. Shih, P. J. P. Byrne,          |
 | R. J. Maurer, J. C. Womack, J. Dziedzic,        |
 | L. LeBlanc, T. K. Stenczel, J. Kermode,         |
 | S. Sturniolo, B. Shi, B. Durham, M. Evans,      |
 | M. J. Smith, A. Tamerus, Z. Hawkhead,           |
 | V. Ravindran, T. Hollins, S. A. Joyce,          |
 | R. T. Strong, A. M. Reilly                      |
 |                                                 |
 | Copyright (c) 2000 - 2023                       |
 |                                                 |
 |     Distributed under license from Cambridge    |
 |     Enterprise for academic use only.           |
 |                                                 |
 | Please cite                                     |
 |                                                 |
 |     "First principles methods using CASTEP"     |
 |                                                 |
 |         Zeitschrift fuer Kristallographie       |
 |           220(5-6) pp. 567-570 (2005)           |
 |                                                 |
 | S. J. Clark, M. D. Segall, C. J. Pickard,       |
 | P. J. Hasnip, M. J. Probert, K. Refson,         |
 | M. C. Payne                                     |
 |                                                 |
 |       in all publications arising from          |
 |              your use of CASTEP                 |
 |                                                 |
 +-------------------------------------------------+
 |                                                 |
 |              http://www.castep.org              |
 |                                                 |
 +-------------------------------------------------+



 Compiled for linux_x86_64_gfortran10 on Tue, 02 May 2023 15:31:46 +0100
 from code version db08e394c+  default  Mon May 1 16:40:39 2023 +0100
 Compiler: GNU Fortran 10.2.0; Optimisation: fast
 Comms   : Open MPI v4.0.5
 MATHLIBS: openblas (LAPACK version 3.9.0)
 FFT Lib : fftw3 version fftw-3.3.8-sse2-avx-avx2-avx2_128
 Fundamental constants values: CODATA 2018

 Run started: Wed, 07 Feb 2024 15:56:59 +0000

 Atomic calculation performed for Al: 1s2 2s2 2p6 3s2 3p1

 Converged in 54 iterations to an ae energy of -6603.783 eV

   ============================================================                
   | Pseudopotential Report - Date of generation  7-02-2024   |                
   ------------------------------------------------------------                
   | Element: Al Ionic charge:  3.00 Level of theory: PBE     |                
   | Atomic Solver: Koelling-Harmon                           |                
   |                                                          |                
   |               Reference Electronic Structure             |                
   |         Orbital         Occupation         Energy        |                
   |            3s              2.000           -0.285        |                
   |            3p              1.000           -0.100        |                
   |                                                          |                
   |                 Pseudopotential Definition               |                
   |        Beta     l      e      Rc     scheme   norm       |                
   |          1      0   -0.285   2.192     qc      0         |                
   |          2      0    0.250   2.192     qc      0         |                
   |          3      1   -0.100   2.192     qc      0         |                
   |          4      1    0.250   2.192     qc      0         |                
   |          5      2    0.000   2.000     qc      0         |                
   |          6      2    0.250   2.000     qc      0         |                
   |         loc     3    0.000   2.192     pn      0         |                
   |                                                          |                
   | Augmentation charge Rinner = 1.398                       |                
   | Partial core correction Rc = 1.398                       |                
   ------------------------------------------------------------                
   | "3|2.2|2.2|1.4|4|5|5|30:31:32U2U2"                       |                
   ------------------------------------------------------------                
   |      Author: Chris J. Pickard, Cambridge University      |                
   ============================================================                

 Atomic calculation performed for Ti: 1s2 2s2 2p6 3s2 3p6 3d2 4s2

 Converged in 79 iterations to an ae energy of -23226.658 eV

   ============================================================                
   | Pseudopotential Report - Date of generation  7-02-2024   |                
   ------------------------------------------------------------                
   | Element: Ti Ionic charge: 12.00 Level of theory: PBE     |                
   | Atomic Solver: Koelling-Harmon                           |                
   |                                                          |                
   |               Reference Electronic Structure             |                
   |         Orbital         Occupation         Energy        |                
   |            3s              2.000           -2.302        |                
   |            3p              6.000           -1.428        |                
   |            4s              2.000           -0.164        |                
   |            3d              2.000           -0.157        |                
   |                                                          |                
   |                 Pseudopotential Definition               |                
   |        Beta     l      e      Rc     scheme   norm       |                
   |          1      0   -2.302   1.793     qc      0         |                
   |          2      0   -0.164   1.793     qc      0         |                
   |          3      0    0.250   1.793     qc      0         |                
   |          4      1   -1.428   1.793     qc      0         |                
   |          5      1    0.250   1.793     qc      0         |                
   |          6      2   -0.157   1.793     qc      0         |                
   |          7      2    0.250   1.793     qc      0         |                
   |         loc     3    0.000   1.793     pn      0         |                
   |                                                          |                
   | Augmentation charge Rinner = 1.263                       |                
   | Partial core correction Rc = 1.263                       |                
   ------------------------------------------------------------                
   | "3|1.8|9|10|11|30U:40:31:32(qc=5.5)"                     |                
   ------------------------------------------------------------                
   |      Author: Chris J. Pickard, Cambridge University      |                
   ============================================================                

 Atomic calculation performed for V: 1s2 2s2 2p6 3s2 3p6 3d3 4s2

 Converged in 81 iterations to an ae energy of -25823.733 eV

   ============================================================                
   | Pseudopotential Report - Date of generation  7-02-2024   |                
   ------------------------------------------------------------                
   | Element: V Ionic charge: 13.00 Level of theory: PBE      |                
   | Atomic Solver: Koelling-Harmon                           |                
   |                                                          |                
   |               Reference Electronic Structure             |                
   |         Orbital         Occupation         Energy        |                
   |            3s              2.000           -2.581        |                
   |            3p              6.000           -1.618        |                
   |            3d              3.000           -0.190        |                
   |            4s              2.000           -0.173        |                
   |                                                          |                
   |                 Pseudopotential Definition               |                
   |        Beta     l      e      Rc     scheme   norm       |                
   |          1      0   -2.581   1.803     qc      0         |                
   |          2      0   -0.173   1.803     qc      0         |                
   |          3      0    0.250   1.803     qc      0         |                
   |          4      1   -1.618   1.803     qc      0         |                
   |          5      1    0.250   1.803     qc      0         |                
   |          6      2   -0.190   1.803     qc      0         |                
   |          7      2    0.250   1.803     qc      0         |                
   |         loc     3    0.000   1.803     pn      0         |                
   |                                                          |                
   | Augmentation charge Rinner = 0.600                       |                
   | Partial core correction Rc = 0.600                       |                
   ------------------------------------------------------------                
   | "3|1.8|1.8|0.6|12|14|16|30U:40:31:32(qc=7)"              |                
   ------------------------------------------------------------                
   |      Author: Chris J. Pickard, Cambridge University      |                
   ============================================================                

 Pseudo atomic calculation performed for Al 3s2 3p1

 Converged in 15 iterations to a total energy of -107.1308 eV

 Pseudo atomic calculation performed for Ti 3s2 3p6 3d2 4s2

 Converged in 34 iterations to a total energy of -1587.0236 eV

 Pseudo atomic calculation performed for V 3s2 3p6 3d3 4s2

 Converged in 35 iterations to a total energy of -2065.7874 eV
 Calculation parallelised over 336 processes.
 Data is distributed by G-vector(24-way) and k-point(14-way)

 ************************************ Title ************************************
 

 ***************************** General Parameters ******************************
  
 output verbosity                               : normal  (1)
 write checkpoint data to                       : sqs_hcp_sc3x3x3_Ti46Al6V2_frame0_12.check
 type of calculation                            : single point energy
 stress calculation                             : on
 density difference calculation                 : off
 electron localisation func (ELF) calculation   : off
 Hirshfeld analysis                             : off
 polarisation (Berry phase) analysis            : off
 molecular orbital projected DOS                : off
 deltaSCF calculation                           : off
 unlimited duration calculation
 timing information                             : on
 memory usage estimate                          : on
 write extra output files                       : on
 write final potential to formatted file        : off
 write final density to formatted file          : off
 write BibTeX reference list                    : on
 write OTFG pseudopotential files               : on
 write electrostatic potential file             : on
 write bands file                               : on
 checkpoint writing                             : off
  
 output         length unit                     : A
 output           mass unit                     : amu
 output           time unit                     : ps
 output         charge unit                     : e
 output           spin unit                     : hbar/2
 output         energy unit                     : eV
 output          force unit                     : eV/A
 output       velocity unit                     : A/ps
 output       pressure unit                     : GPa
 output     inv_length unit                     : 1/A
 output      frequency unit                     : cm-1
 output force constant unit                     : eV/A**2
 output         volume unit                     : A**3
 output   IR intensity unit                     : (D/A)**2/amu
 output         dipole unit                     : D
 output         efield unit                     : eV/A/e
 output        entropy unit                     : J/mol/K
 output    efield chi2 unit                     : pm/V
  
 wavefunctions paging                           : none
 random number generator seed                   :  155659421
 data distribution                              : k-point only
 optimization strategy                          : maximize speed(+++)

 *********************** Exchange-Correlation Parameters ***********************
  
 using functional                               : Perdew Burke Ernzerhof
 relativistic treatment                         : Koelling-Harmon
 DFT+D: Semi-empirical dispersion correction    : off

 ************************* Pseudopotential Parameters **************************
  
 pseudopotential representation                 : reciprocal space
 <beta|phi> representation                      : reciprocal space
 spin-orbit coupling                            : off

 **************************** Basis Set Parameters *****************************
  
 plane wave basis set cut-off                   :   800.0000   eV
 size of standard grid                          :     2.0000
 size of   fine   gmax                          :    28.9810   1/A
 largest prime factor in FFT                    :          5
 finite basis set correction                    : automatic
 number of sample energies                      :          3
           sample  spacing                      :     5.0000   eV

 **************************** Electronic Parameters ****************************
  
 number of  electrons                           :  596.0    
 net charge of system                           :  0.000    
 treating system as non-spin-polarized
 number of bands                                :        333

 ********************* Electronic Minimization Parameters **********************
  
 Method: Treating system as metallic with density mixing treatment of electrons,
         and number of  SD  steps               :          1
         and number of  CG  steps               :          4
  
 total energy / atom convergence tol.           : 0.1000E-05   eV
 eigen-energy convergence tolerance             : 0.1622E-06   eV
 max force / atom convergence tol.              : ignored
 convergence tolerance window                   :          3   cycles
 max. number of SCF cycles                      :         30
 number of fixed-spin iterations                :         10
 smearing scheme                                : Gaussian
 smearing width                                 : 0.5000E-01   eV
 Fermi energy convergence tolerance             : 0.2721E-13   eV
 periodic dipole correction                     : NONE

 ************************** Density Mixing Parameters **************************
  
 density-mixing scheme                          : Pulay
 max. length of mixing history                  :         20
 charge density mixing amplitude                : 0.8000    
 cut-off energy for mixing                      :  800.0       eV
 charge density mixing g-vector                 :  1.500       1/A

 *********************** Population Analysis Parameters ************************
  
 Population analysis with cutoff                :  3.000       A
 Population analysis output                     : summary and pdos components

 ******************************* Developer Code ********************************
  
 PARALLEL: kpoint=14 : ENDPARALLEL
 no_improve_wvfn

 *******************************************************************************
  

                           -------------------------------
                                      Unit Cell
                           -------------------------------
        Real Lattice(A)                      Reciprocal Lattice(1/A)
     4.3693630    -7.5679570     0.0000100        0.719004728  -0.415117667   0.000003496
     4.3693630     7.5679570     0.0000440        0.719004728   0.415117667   0.000005409
    -0.0000860    -0.0000320    13.8866850       -0.000002796  -0.000001016   0.452461139

                       Lattice parameters(A)       Cell Angles
                    a =      8.738725          alpha =   90.000003
                    b =      8.738725          beta  =   89.999998
                    c =     13.886685          gamma =  119.999989

                       Current cell volume =           918.386228       A**3
                                   density =             2.684768   AMU/A**3
                                           =             4.458163     g/cm^3

                           -------------------------------
                                     Cell Contents
                           -------------------------------
                         Total number of ions in cell =   54
                      Total number of species in cell =    3
                        Max number of any one species =   46

            xxxxxxxxxxxxxxxxxxxxxxxxxxxxxxxxxxxxxxxxxxxxxxxxxxxxxxxxxxxx
            x  Element    Atom        Fractional coordinates of atoms  x
            x            Number           u          v          w      x
            x----------------------------------------------------------x
            x  Al           1         0.219996   0.444907   0.915446   x 
            x  Al           2         0.446433   0.883893   0.751022   x 
            x  Al           3         0.886441   0.111002   0.249256   x 
            x  Al           4         0.781569   0.221083   0.751621   x 
            x  Al           5         0.885394   0.445419   0.585027   x 
            x  Al           6         0.777651   0.548866   0.750608   x 
            x  Ti           1         0.103279   0.232817   0.080418   x 
            x  Ti           2         0.216155   0.108856   0.245566   x 
            x  Ti           3         0.110011   0.219632   0.413440   x 
            x  Ti           4         0.220396   0.113283   0.584501   x 
            x  Ti           5         0.109255   0.221623   0.755627   x 
            x  Ti           6         0.219503   0.114816   0.920475   x 
            x  Ti           7         0.215066   0.447222   0.246789   x 
            x  Ti           8         0.109295   0.558598   0.418778   x 
            x  Ti           9         0.222706   0.439540   0.582768   x 
            x  Ti          10         0.115625   0.554727   0.747779   x 
            x  Ti          11         0.107393   0.880274   0.081147   x 
            x  Ti          12         0.218892   0.774872   0.249152   x 
            x  Ti          13         0.113514   0.892110   0.417165   x 
            x  Ti          14         0.224863   0.783578   0.586854   x 
            x  Ti          15         0.119497   0.889742   0.754157   x 
            x  Ti          16         0.229912   0.775522   0.918082   x 
            x  Ti          17         0.447801   0.220534   0.082913   x 
            x  Ti          18         0.554973   0.109054   0.251671   x 
            x  Ti          19         0.439409   0.220787   0.414680   x 
            x  Ti          20         0.555972   0.109078   0.584947   x 
            x  Ti          21         0.445984   0.216759   0.751354   x 
            x  Ti          22         0.560802   0.103085   0.915914   x 
            x  Ti          23         0.437336   0.553747   0.080761   x 
            x  Ti          24         0.555177   0.444877   0.247306   x 
            x  Ti          25         0.444371   0.556499   0.413600   x 
            x  Ti          26         0.555187   0.443536   0.581254   x 
            x  Ti          27         0.447221   0.554440   0.750740   x 
            x  Ti          28         0.551306   0.441513   0.916646   x 
            x  Ti          29         0.439201   0.889437   0.083502   x 
            x  Ti          30         0.557427   0.783178   0.248438   x 
            x  Ti          31         0.439909   0.886969   0.420472   x 
            x  Ti          32         0.549436   0.772836   0.582393   x 
            x  Ti          33         0.553858   0.778457   0.918968   x 
            x  Ti          34         0.775398   0.217811   0.083901   x 
            x  Ti          35         0.780941   0.226238   0.419536   x 
            x  Ti          36         0.898446   0.122743   0.582247   x 
            x  Ti          37         0.781084   0.557143   0.079138   x 
            x  Ti          38         0.892695   0.446386   0.249959   x 
            x  Ti          39         0.777701   0.556095   0.418633   x 
            x  Ti          40         0.895009   0.437072   0.915384   x 
            x  Ti          41         0.785430   0.896558   0.081420   x 
            x  Ti          42         0.887957   0.781146   0.250966   x 
            x  Ti          43         0.778287   0.892939   0.418009   x 
            x  Ti          44         0.892531   0.775469   0.587315   x 
            x  Ti          45         0.775386   0.893703   0.751153   x 
            x  Ti          46         0.885543   0.776190   0.913040   x 
            x  V            1         0.116433   0.560537   0.079059   x 
            x  V            2         0.888941   0.112801   0.919001   x 
            xxxxxxxxxxxxxxxxxxxxxxxxxxxxxxxxxxxxxxxxxxxxxxxxxxxxxxxxxxxx


                         No user defined ionic velocities

                           -------------------------------
                                   Details of Species
                           -------------------------------

                               Mass of species in AMU
                                    Al   26.9815400
                                    Ti   47.8670000
                                    V   50.9415000

                          Electric Quadrupole Moment (Barn)
                                    Al    0.1466000 Isotope 27
                                    Ti    0.3020000 Isotope 47
                                    V   -0.0520000 Isotope 51

                          Files used for pseudopotentials:
                                    Al 3|2.2|2.2|1.4|4|5|5|30:31:32U2U2
                                    Ti 3|1.8|9|10|11|30U:40:31:32(qc=5.5)
                                    V 3|1.8|1.8|0.6|12|14|16|30U:40:31:32(qc=7)

                           -------------------------------
                              k-Points For BZ Sampling
                           -------------------------------
                       MP grid size for SCF calculation is  7  7  4
                            with an offset of   0.000  0.000  0.000
                       Number of kpoints used =            98

                           -------------------------------
                               Symmetry and Constraints
                           -------------------------------

                      Maximum deviation from symmetry =  0.00000         ANG

                      Number of symmetry operations   =           1
                      Number of ionic constraints     =           3
                      Point group of crystal =     1: C1, 1, 1
                      Space group of crystal =     1: P1, P 1

             Set iprint > 1 for details on symmetry rotations/translations

                         Centre of mass is constrained
             Set iprint > 1 for details of linear ionic constraints

                         Number of cell constraints= 0
                         Cell constraints are:  1 2 3 4 5 6

                         External pressure/stress (GPa)
                          0.00000   0.00000   0.00000
                                    0.00000   0.00000
                                              0.00000
 
+---------------- MEMORY AND SCRATCH DISK ESTIMATES PER PROCESS --------------+
|                                                     Memory          Disk    |
| Baseline code, static data and system overhead      591.0 MB         0.0 MB |
| BLAS internal memory storage                          0.0 MB         0.0 MB |
| Model and support data                              555.0 MB         0.0 MB |
| Electronic energy minimisation requirements         184.3 MB         0.0 MB |
| Force calculation requirements                        7.2 MB         0.0 MB |
| Stress calculation requirements                       7.7 MB         0.0 MB |
|                                               ----------------------------- |
| Approx. total storage required per process         1330.3 MB         0.0 MB |
|                                                                             |
| Requirements will fluctuate during execution and may exceed these estimates |
+-----------------------------------------------------------------------------+
Calculating finite basis set correction with  3 cut-off energies.
Calculating total energy with cut-off of  790.000 eV.
------------------------------------------------------------------------ <-- SCF
SCF loop      Energy           Fermi           Energy gain       Timer   <-- SCF
                               energy          per atom          (sec)   <-- SCF
------------------------------------------------------------------------ <-- SCF
Initial  -7.02017647E+004  0.00000000E+000                        24.91  <-- SCF
      1  -7.61448913E+004  1.15947542E+001   1.10057899E+002      94.52  <-- SCF
      2  -7.80215208E+004  9.26496027E+000   3.47523988E+001     152.10  <-- SCF
      3  -7.81363806E+004  8.97375808E+000   2.12703363E+000     212.37  <-- SCF
      4  -7.81416280E+004  8.17817786E+000   9.71736151E-002     279.33  <-- SCF
      5  -7.81427959E+004  8.34775618E+000   2.16280801E-002     353.20  <-- SCF
      6  -7.81364367E+004  8.52870504E+000  -1.17762129E-001     420.32  <-- SCF
      7  -7.81346654E+004  8.51756885E+000  -3.28018524E-002     492.73  <-- SCF
      8  -7.81347515E+004  8.46857881E+000   1.59363457E-003     560.94  <-- SCF
      9  -7.81345796E+004  8.46140237E+000  -3.18394985E-003     629.42  <-- SCF
     10  -7.81345877E+004  8.46318046E+000   1.50667963E-004     699.38  <-- SCF
     11  -7.81345225E+004  8.46153255E+000  -1.20806568E-003     765.63  <-- SCF
     12  -7.81345267E+004  8.46092735E+000   7.75781819E-005     834.40  <-- SCF
     13  -7.81345227E+004  8.46043468E+000  -7.25504043E-005     898.49  <-- SCF
     14  -7.81345230E+004  8.46049220E+000   5.31854354E-006     957.11  <-- SCF
     15  -7.81345227E+004  8.46051563E+000  -5.57095418E-006    1010.15  <-- SCF
     16  -7.81345227E+004  8.46052646E+000  -1.13565879E-007    1050.82  <-- SCF
     17  -7.81345227E+004  8.46054161E+000  -1.67708050E-007    1090.51  <-- SCF
------------------------------------------------------------------------ <-- SCF
 
Final energy, E             =  -78134.45107949     eV
Final free energy (E-TS)    =  -78134.52271035     eV
(energies not corrected for finite basis set)
 
NB est. 0K energy (E-0.5TS)      =  -78134.48689492     eV
 
Calculating total energy with cut-off of  795.000 eV.
------------------------------------------------------------------------ <-- SCF
SCF loop      Energy           Fermi           Energy gain       Timer   <-- SCF
                               energy          per atom          (sec)   <-- SCF
------------------------------------------------------------------------ <-- SCF
Initial  -7.81344511E+004  0.00000000E+000                      1101.20  <-- SCF
      1  -7.81345240E+004  8.46060492E+000   1.35114444E-003    1154.23  <-- SCF
      2  -7.81345241E+004  8.46060326E+000   2.41132208E-006    1207.51  <-- SCF
      3  -7.81345442E+004  8.45919662E+000   3.71372877E-004    1271.47  <-- SCF
      4  -7.81345240E+004  8.46091902E+000  -3.73428831E-004    1334.80  <-- SCF
      5  -7.81345236E+004  8.46059130E+000  -8.16098392E-006    1394.85  <-- SCF
      6  -7.81345236E+004  8.46050726E+000   8.62135759E-007    1440.98  <-- SCF
      7  -7.81345236E+004  8.46053430E+000   1.10102907E-007    1480.74  <-- SCF
------------------------------------------------------------------------ <-- SCF
 
Final energy, E             =  -78134.45200557     eV
Final free energy (E-TS)    =  -78134.52364352     eV
(energies not corrected for finite basis set)
 
NB est. 0K energy (E-0.5TS)      =  -78134.48782454     eV
 
Calculating total energy with cut-off of  800.000 eV.
------------------------------------------------------------------------ <-- SCF
SCF loop      Energy           Fermi           Energy gain       Timer   <-- SCF
                               energy          per atom          (sec)   <-- SCF
------------------------------------------------------------------------ <-- SCF
Initial  -7.81344520E+004  0.00000000E+000                      1491.73  <-- SCF
      1  -7.81345257E+004  8.46021875E+000   1.36564835E-003    1546.96  <-- SCF
      2  -7.81345259E+004  8.46021735E+000   2.43886728E-006    1602.40  <-- SCF
      3  -7.81345784E+004  8.46332227E+000   9.72529166E-004    1672.44  <-- SCF
      4  -7.81345265E+004  8.45928477E+000  -9.59676618E-004    1741.97  <-- SCF
      5  -7.81345244E+004  8.46053809E+000  -4.04056949E-005    1804.74  <-- SCF
      6  -7.81345246E+004  8.46054253E+000   4.42057615E-006    1864.68  <-- SCF
      7  -7.81345245E+004  8.46051783E+000  -1.51832640E-006    1911.71  <-- SCF
      8  -7.81345245E+004  8.46052762E+000  -2.62353844E-007    1953.81  <-- SCF
      9  -7.81345245E+004  8.46052473E+000  -2.07494193E-008    1994.86  <-- SCF
------------------------------------------------------------------------ <-- SCF
 
Final energy, E             =  -78134.45288383     eV
Final free energy (E-TS)    =  -78134.52450888     eV
(energies not corrected for finite basis set)
 
NB est. 0K energy (E-0.5TS)      =  -78134.48869636     eV
 
 For future reference: finite basis dEtot/dlog(Ecut) =      -0.142727eV
 Total energy corrected for finite basis set =  -78134.524513 eV

 ************************** Forces **************************
 *                                                          *
 *               Cartesian components (eV/A)                *
 * -------------------------------------------------------- *
 *                         x            y            z      *
 *                                                          *
 * Al              1      0.04733     -0.01108      0.05995 *
 * Al              2     -0.01499     -0.03301     -0.07501 *
 * Al              3      0.00704     -0.01052      0.08458 *
 * Al              4     -0.04720      0.03765     -0.04978 *
 * Al              5     -0.03419     -0.05790      0.05655 *
 * Al              6      0.04987      0.11561      0.03126 *
 * Ti              1     -0.00380      0.03899     -0.02371 *
 * Ti              2     -0.00162      0.03934      0.00805 *
 * Ti              3      0.00624     -0.02724      0.00482 *
 * Ti              4     -0.01495      0.01355     -0.03302 *
 * Ti              5      0.02404     -0.06549     -0.10681 *
 * Ti              6      0.05554      0.03824      0.01511 *
 * Ti              7     -0.04072      0.02294      0.02142 *
 * Ti              8     -0.00373     -0.02972     -0.04246 *
 * Ti              9      0.03636     -0.03836      0.05192 *
 * Ti             10     -0.07348      0.04087      0.05242 *
 * Ti             11     -0.01302     -0.05233     -0.03102 *
 * Ti             12     -0.02376      0.00065      0.02001 *
 * Ti             13      0.01112      0.01589      0.03069 *
 * Ti             14      0.03457      0.00822      0.03972 *
 * Ti             15     -0.04933      0.08206     -0.03403 *
 * Ti             16     -0.05180      0.10213     -0.01745 *
 * Ti             17      0.01527      0.00232     -0.02070 *
 * Ti             18      0.04023      0.00278     -0.08648 *
 * Ti             19     -0.01524      0.02773      0.03592 *
 * Ti             20     -0.04317      0.06864     -0.11606 *
 * Ti             21      0.00854     -0.02088      0.00109 *
 * Ti             22     -0.03529      0.14522      0.11019 *
 * Ti             23      0.00532      0.00840     -0.05727 *
 * Ti             24     -0.02614     -0.00821      0.00450 *
 * Ti             25      0.02445      0.00573      0.00674 *
 * Ti             26      0.01260     -0.01250     -0.06188 *
 * Ti             27      0.07331     -0.00023      0.02368 *
 * Ti             28     -0.01510      0.00648      0.08047 *
 * Ti             29     -0.13109      0.01243     -0.00626 *
 * Ti             30      0.04156     -0.01382     -0.00232 *
 * Ti             31     -0.03344     -0.00803     -0.06778 *
 * Ti             32     -0.03507     -0.05053     -0.03272 *
 * Ti             33      0.04165     -0.10604      0.01958 *
 * Ti             34      0.00565     -0.05266     -0.02834 *
 * Ti             35      0.00893     -0.02682     -0.01346 *
 * Ti             36     -0.01634     -0.05003     -0.02699 *
 * Ti             37     -0.01636     -0.00863     -0.00229 *
 * Ti             38      0.01163     -0.05682     -0.09745 *
 * Ti             39      0.00497     -0.03530      0.09960 *
 * Ti             40     -0.00303      0.09596      0.02548 *
 * Ti             41     -0.03636      0.05067     -0.00890 *
 * Ti             42      0.02114      0.00924     -0.02493 *
 * Ti             43     -0.01593     -0.00378     -0.05732 *
 * Ti             44     -0.03685     -0.01677     -0.05449 *
 * Ti             45     -0.05546     -0.08809     -0.03100 *
 * Ti             46      0.01022     -0.02051      0.11565 *
 * V               1      0.07545      0.05482      0.32937 *
 * V               2      0.21446     -0.14124     -0.11883 *
 *                                                          *
 ************************************************************

 ***************** Stress Tensor *****************
 *                                               *
 *          Cartesian components (GPa)           *
 * --------------------------------------------- *
 *             x             y             z     *
 *                                               *
 *  x     -0.061616     -0.066228     -0.183644  *
 *  y     -0.066228      0.101762     -0.064029  *
 *  z     -0.183644     -0.064029     -0.035163  *
 *                                               *
 *  Pressure:   -0.0017                          *
 *                                               *
 *************************************************

 Pseudo atomic calculation performed for Al 3s2 3p1

 Converged in 15 iterations to a total energy of -107.1308 eV

 Pseudo atomic calculation performed for Ti 3s2 3p6 3d2 4s2

 Converged in 34 iterations to a total energy of -1587.0236 eV

 Pseudo atomic calculation performed for V 3s2 3p6 3d3 4s2

 Converged in 35 iterations to a total energy of -2065.7874 eV
Charge spilling parameter for spin component 1 = 0.09%

            Orbital Populations       
     Ion    Atom   Orbital             Charge
  -------------------------------------------
     Al     1      S                    0.926
     Al     1      Px                   0.683
     Al     1      Py                   0.688
     Al     1      Pz                   0.707
     Al     2      S                    0.945
     Al     2      Px                   0.646
     Al     2      Py                   0.706
     Al     2      Pz                   0.711
     Al     3      S                    0.934
     Al     3      Px                   0.692
     Al     3      Py                   0.687
     Al     3      Pz                   0.711
     Al     4      S                    0.963
     Al     4      Px                   0.659
     Al     4      Py                   0.681
     Al     4      Pz                   0.684
     Al     5      S                    0.959
     Al     5      Px                   0.700
     Al     5      Py                   0.702
     Al     5      Pz                   0.646
     Al     6      S                    0.965
     Al     6      Px                   0.683
     Al     6      Py                   0.656
     Al     6      Pz                   0.689
     Ti     1      S                    2.003
     Ti     1      Px                   2.006
     Ti     1      Py                   2.005
     Ti     1      Pz                   2.006
     Ti     1      S                    0.301
     Ti     1      Dzz                  0.608
     Ti     1      Dzy                  0.464
     Ti     1      Dzx                  0.513
     Ti     1      Dxx-yy               0.572
     Ti     1      Dxy                  0.569
     Ti     1      Px                   0.320
     Ti     1      Py                   0.321
     Ti     1      Pz                   0.282
     Ti     2      S                    2.003
     Ti     2      Px                   2.005
     Ti     2      Py                   2.005
     Ti     2      Pz                   2.005
     Ti     2      S                    0.314
     Ti     2      Dzz                  0.597
     Ti     2      Dzy                  0.473
     Ti     2      Dzx                  0.501
     Ti     2      Dxx-yy               0.572
     Ti     2      Dxy                  0.571
     Ti     2      Px                   0.321
     Ti     2      Py                   0.315
     Ti     2      Pz                   0.313
     Ti     3      S                    2.003
     Ti     3      Px                   2.006
     Ti     3      Py                   2.006
     Ti     3      Pz                   2.006
     Ti     3      S                    0.303
     Ti     3      Dzz                  0.613
     Ti     3      Dzy                  0.491
     Ti     3      Dzx                  0.464
     Ti     3      Dxx-yy               0.575
     Ti     3      Dxy                  0.566
     Ti     3      Px                   0.318
     Ti     3      Py                   0.332
     Ti     3      Pz                   0.299
     Ti     4      S                    2.003
     Ti     4      Px                   2.005
     Ti     4      Py                   2.006
     Ti     4      Pz                   2.005
     Ti     4      S                    0.298
     Ti     4      Dzz                  0.615
     Ti     4      Dzy                  0.485
     Ti     4      Dzx                  0.460
     Ti     4      Dxx-yy               0.576
     Ti     4      Dxy                  0.565
     Ti     4      Px                   0.327
     Ti     4      Py                   0.335
     Ti     4      Pz                   0.336
     Ti     5      S                    2.002
     Ti     5      Px                   2.005
     Ti     5      Py                   2.005
     Ti     5      Pz                   2.005
     Ti     5      S                    0.304
     Ti     5      Dzz                  0.627
     Ti     5      Dzy                  0.494
     Ti     5      Dzx                  0.465
     Ti     5      Dxx-yy               0.588
     Ti     5      Dxy                  0.534
     Ti     5      Px                   0.324
     Ti     5      Py                   0.293
     Ti     5      Pz                   0.314
     Ti     6      S                    2.003
     Ti     6      Px                   2.005
     Ti     6      Py                   2.005
     Ti     6      Pz                   2.005
     Ti     6      S                    0.311
     Ti     6      Dzz                  0.594
     Ti     6      Dzy                  0.503
     Ti     6      Dzx                  0.481
     Ti     6      Dxx-yy               0.567
     Ti     6      Dxy                  0.567
     Ti     6      Px                   0.319
     Ti     6      Py                   0.324
     Ti     6      Pz                   0.318
     Ti     7      S                    2.003
     Ti     7      Px                   2.005
     Ti     7      Py                   2.005
     Ti     7      Pz                   2.005
     Ti     7      S                    0.315
     Ti     7      Dzz                  0.588
     Ti     7      Dzy                  0.509
     Ti     7      Dzx                  0.478
     Ti     7      Dxx-yy               0.532
     Ti     7      Dxy                  0.602
     Ti     7      Px                   0.300
     Ti     7      Py                   0.340
     Ti     7      Pz                   0.328
     Ti     8      S                    2.003
     Ti     8      Px                   2.006
     Ti     8      Py                   2.005
     Ti     8      Pz                   2.006
     Ti     8      S                    0.308
     Ti     8      Dzz                  0.620
     Ti     8      Dzy                  0.462
     Ti     8      Dzx                  0.480
     Ti     8      Dxx-yy               0.573
     Ti     8      Dxy                  0.578
     Ti     8      Px                   0.323
     Ti     8      Py                   0.331
     Ti     8      Pz                   0.287
     Ti     9      S                    2.003
     Ti     9      Px                   2.005
     Ti     9      Py                   2.005
     Ti     9      Pz                   2.005
     Ti     9      S                    0.318
     Ti     9      Dzz                  0.592
     Ti     9      Dzy                  0.456
     Ti     9      Dzx                  0.520
     Ti     9      Dxx-yy               0.551
     Ti     9      Dxy                  0.574
     Ti     9      Px                   0.325
     Ti     9      Py                   0.309
     Ti     9      Pz                   0.328
     Ti    10      S                    2.003
     Ti    10      Px                   2.006
     Ti    10      Py                   2.005
     Ti    10      Pz                   2.006
     Ti    10      S                    0.334
     Ti    10      Dzz                  0.627
     Ti    10      Dzy                  0.493
     Ti    10      Dzx                  0.485
     Ti    10      Dxx-yy               0.542
     Ti    10      Dxy                  0.610
     Ti    10      Px                   0.277
     Ti    10      Py                   0.308
     Ti    10      Pz                   0.306
     Ti    11      S                    2.003
     Ti    11      Px                   2.006
     Ti    11      Py                   2.006
     Ti    11      Pz                   2.006
     Ti    11      S                    0.310
     Ti    11      Dzz                  0.600
     Ti    11      Dzy                  0.501
     Ti    11      Dzx                  0.466
     Ti    11      Dxx-yy               0.574
     Ti    11      Dxy                  0.566
     Ti    11      Px                   0.330
     Ti    11      Py                   0.341
     Ti    11      Pz                   0.318
     Ti    12      S                    2.003
     Ti    12      Px                   2.005
     Ti    12      Py                   2.005
     Ti    12      Pz                   2.005
     Ti    12      S                    0.292
     Ti    12      Dzz                  0.619
     Ti    12      Dzy                  0.461
     Ti    12      Dzx                  0.469
     Ti    12      Dxx-yy               0.578
     Ti    12      Dxy                  0.576
     Ti    12      Px                   0.329
     Ti    12      Py                   0.325
     Ti    12      Pz                   0.342
     Ti    13      S                    2.003
     Ti    13      Px                   2.006
     Ti    13      Py                   2.006
     Ti    13      Pz                   2.005
     Ti    13      S                    0.306
     Ti    13      Dzz                  0.596
     Ti    13      Dzy                  0.482
     Ti    13      Dzx                  0.476
     Ti    13      Dxx-yy               0.571
     Ti    13      Dxy                  0.568
     Ti    13      Px                   0.328
     Ti    13      Py                   0.335
     Ti    13      Pz                   0.314
     Ti    14      S                    2.003
     Ti    14      Px                   2.006
     Ti    14      Py                   2.006
     Ti    14      Pz                   2.006
     Ti    14      S                    0.319
     Ti    14      Dzz                  0.618
     Ti    14      Dzy                  0.492
     Ti    14      Dzx                  0.487
     Ti    14      Dxx-yy               0.542
     Ti    14      Dxy                  0.582
     Ti    14      Px                   0.291
     Ti    14      Py                   0.344
     Ti    14      Pz                   0.303
     Ti    15      S                    2.003
     Ti    15      Px                   2.005
     Ti    15      Py                   2.005
     Ti    15      Pz                   2.005
     Ti    15      S                    0.328
     Ti    15      Dzz                  0.584
     Ti    15      Dzy                  0.479
     Ti    15      Dzx                  0.524
     Ti    15      Dxx-yy               0.546
     Ti    15      Dxy                  0.585
     Ti    15      Px                   0.285
     Ti    15      Py                   0.322
     Ti    15      Pz                   0.331
     Ti    16      S                    2.003
     Ti    16      Px                   2.006
     Ti    16      Py                   2.006
     Ti    16      Pz                   2.006
     Ti    16      S                    0.301
     Ti    16      Dzz                  0.605
     Ti    16      Dzy                  0.492
     Ti    16      Dzx                  0.484
     Ti    16      Dxx-yy               0.588
     Ti    16      Dxy                  0.554
     Ti    16      Px                   0.325
     Ti    16      Py                   0.300
     Ti    16      Pz                   0.300
     Ti    17      S                    2.003
     Ti    17      Px                   2.005
     Ti    17      Py                   2.005
     Ti    17      Pz                   2.005
     Ti    17      S                    0.307
     Ti    17      Dzz                  0.598
     Ti    17      Dzy                  0.503
     Ti    17      Dzx                  0.468
     Ti    17      Dxx-yy               0.579
     Ti    17      Dxy                  0.557
     Ti    17      Px                   0.330
     Ti    17      Py                   0.345
     Ti    17      Pz                   0.320
     Ti    18      S                    2.003
     Ti    18      Px                   2.005
     Ti    18      Py                   2.005
     Ti    18      Pz                   2.005
     Ti    18      S                    0.315
     Ti    18      Dzz                  0.622
     Ti    18      Dzy                  0.493
     Ti    18      Dzx                  0.466
     Ti    18      Dxx-yy               0.599
     Ti    18      Dxy                  0.540
     Ti    18      Px                   0.334
     Ti    18      Py                   0.304
     Ti    18      Pz                   0.318
     Ti    19      S                    2.003
     Ti    19      Px                   2.006
     Ti    19      Py                   2.005
     Ti    19      Pz                   2.005
     Ti    19      S                    0.310
     Ti    19      Dzz                  0.592
     Ti    19      Dzy                  0.478
     Ti    19      Dzx                  0.491
     Ti    19      Dxx-yy               0.563
     Ti    19      Dxy                  0.577
     Ti    19      Px                   0.332
     Ti    19      Py                   0.332
     Ti    19      Pz                   0.326
     Ti    20      S                    2.003
     Ti    20      Px                   2.005
     Ti    20      Py                   2.005
     Ti    20      Pz                   2.005
     Ti    20      S                    0.319
     Ti    20      Dzz                  0.590
     Ti    20      Dzy                  0.501
     Ti    20      Dzx                  0.493
     Ti    20      Dxx-yy               0.543
     Ti    20      Dxy                  0.599
     Ti    20      Px                   0.292
     Ti    20      Py                   0.331
     Ti    20      Pz                   0.279
     Ti    21      S                    2.002
     Ti    21      Px                   2.005
     Ti    21      Py                   2.005
     Ti    21      Pz                   2.005
     Ti    21      S                    0.349
     Ti    21      Dzz                  0.608
     Ti    21      Dzy                  0.480
     Ti    21      Dzx                  0.498
     Ti    21      Dxx-yy               0.544
     Ti    21      Dxy                  0.586
     Ti    21      Px                   0.286
     Ti    21      Py                   0.312
     Ti    21      Pz                   0.338
     Ti    22      S                    2.003
     Ti    22      Px                   2.006
     Ti    22      Py                   2.005
     Ti    22      Pz                   2.006
     Ti    22      S                    0.301
     Ti    22      Dzz                  0.621
     Ti    22      Dzy                  0.472
     Ti    22      Dzx                  0.480
     Ti    22      Dxx-yy               0.570
     Ti    22      Dxy                  0.573
     Ti    22      Px                   0.324
     Ti    22      Py                   0.331
     Ti    22      Pz                   0.276
     Ti    23      S                    2.003
     Ti    23      Px                   2.005
     Ti    23      Py                   2.005
     Ti    23      Pz                   2.006
     Ti    23      S                    0.300
     Ti    23      Dzz                  0.614
     Ti    23      Dzy                  0.482
     Ti    23      Dzx                  0.489
     Ti    23      Dxx-yy               0.561
     Ti    23      Dxy                  0.568
     Ti    23      Px                   0.323
     Ti    23      Py                   0.336
     Ti    23      Pz                   0.296
     Ti    24      S                    2.002
     Ti    24      Px                   2.005
     Ti    24      Py                   2.005
     Ti    24      Pz                   2.005
     Ti    24      S                    0.307
     Ti    24      Dzz                  0.616
     Ti    24      Dzy                  0.473
     Ti    24      Dzx                  0.478
     Ti    24      Dxx-yy               0.557
     Ti    24      Dxy                  0.570
     Ti    24      Px                   0.332
     Ti    24      Py                   0.331
     Ti    24      Pz                   0.327
     Ti    25      S                    2.003
     Ti    25      Px                   2.005
     Ti    25      Py                   2.005
     Ti    25      Pz                   2.005
     Ti    25      S                    0.304
     Ti    25      Dzz                  0.605
     Ti    25      Dzy                  0.486
     Ti    25      Dzx                  0.480
     Ti    25      Dxx-yy               0.568
     Ti    25      Dxy                  0.574
     Ti    25      Px                   0.334
     Ti    25      Py                   0.331
     Ti    25      Pz                   0.329
     Ti    26      S                    2.003
     Ti    26      Px                   2.006
     Ti    26      Py                   2.006
     Ti    26      Pz                   2.005
     Ti    26      S                    0.322
     Ti    26      Dzz                  0.593
     Ti    26      Dzy                  0.525
     Ti    26      Dzx                  0.467
     Ti    26      Dxx-yy               0.598
     Ti    26      Dxy                  0.545
     Ti    26      Px                   0.317
     Ti    26      Py                   0.305
     Ti    26      Pz                   0.309
     Ti    27      S                    2.002
     Ti    27      Px                   2.005
     Ti    27      Py                   2.005
     Ti    27      Pz                   2.005
     Ti    27      S                    0.318
     Ti    27      Dzz                  0.619
     Ti    27      Dzy                  0.489
     Ti    27      Dzx                  0.484
     Ti    27      Dxx-yy               0.590
     Ti    27      Dxy                  0.549
     Ti    27      Px                   0.318
     Ti    27      Py                   0.278
     Ti    27      Pz                   0.313
     Ti    28      S                    2.003
     Ti    28      Px                   2.005
     Ti    28      Py                   2.005
     Ti    28      Pz                   2.005
     Ti    28      S                    0.321
     Ti    28      Dzz                  0.604
     Ti    28      Dzy                  0.487
     Ti    28      Dzx                  0.487
     Ti    28      Dxx-yy               0.583
     Ti    28      Dxy                  0.557
     Ti    28      Px                   0.317
     Ti    28      Py                   0.320
     Ti    28      Pz                   0.302
     Ti    29      S                    2.004
     Ti    29      Px                   2.006
     Ti    29      Py                   2.006
     Ti    29      Pz                   2.006
     Ti    29      S                    0.296
     Ti    29      Dzz                  0.591
     Ti    29      Dzy                  0.482
     Ti    29      Dzx                  0.504
     Ti    29      Dxx-yy               0.564
     Ti    29      Dxy                  0.553
     Ti    29      Px                   0.347
     Ti    29      Py                   0.335
     Ti    29      Pz                   0.301
     Ti    30      S                    2.003
     Ti    30      Px                   2.005
     Ti    30      Py                   2.005
     Ti    30      Pz                   2.005
     Ti    30      S                    0.324
     Ti    30      Dzz                  0.605
     Ti    30      Dzy                  0.485
     Ti    30      Dzx                  0.477
     Ti    30      Dxx-yy               0.548
     Ti    30      Dxy                  0.605
     Ti    30      Px                   0.301
     Ti    30      Py                   0.336
     Ti    30      Pz                   0.319
     Ti    31      S                    2.003
     Ti    31      Px                   2.005
     Ti    31      Py                   2.006
     Ti    31      Pz                   2.005
     Ti    31      S                    0.305
     Ti    31      Dzz                  0.586
     Ti    31      Dzy                  0.484
     Ti    31      Dzx                  0.492
     Ti    31      Dxx-yy               0.561
     Ti    31      Dxy                  0.572
     Ti    31      Px                   0.336
     Ti    31      Py                   0.340
     Ti    31      Pz                   0.321
     Ti    32      S                    2.003
     Ti    32      Px                   2.005
     Ti    32      Py                   2.005
     Ti    32      Pz                   2.005
     Ti    32      S                    0.311
     Ti    32      Dzz                  0.602
     Ti    32      Dzy                  0.487
     Ti    32      Dzx                  0.491
     Ti    32      Dxx-yy               0.568
     Ti    32      Dxy                  0.543
     Ti    32      Px                   0.334
     Ti    32      Py                   0.322
     Ti    32      Pz                   0.300
     Ti    33      S                    2.003
     Ti    33      Px                   2.005
     Ti    33      Py                   2.006
     Ti    33      Pz                   2.006
     Ti    33      S                    0.322
     Ti    33      Dzz                  0.600
     Ti    33      Dzy                  0.492
     Ti    33      Dzx                  0.482
     Ti    33      Dxx-yy               0.558
     Ti    33      Dxy                  0.583
     Ti    33      Px                   0.304
     Ti    33      Py                   0.326
     Ti    33      Pz                   0.301
     Ti    34      S                    2.003
     Ti    34      Px                   2.005
     Ti    34      Py                   2.006
     Ti    34      Pz                   2.006
     Ti    34      S                    0.305
     Ti    34      Dzz                  0.598
     Ti    34      Dzy                  0.503
     Ti    34      Dzx                  0.474
     Ti    34      Dxx-yy               0.571
     Ti    34      Dxy                  0.553
     Ti    34      Px                   0.342
     Ti    34      Py                   0.317
     Ti    34      Pz                   0.303
     Ti    35      S                    2.003
     Ti    35      Px                   2.005
     Ti    35      Py                   2.005
     Ti    35      Pz                   2.006
     Ti    35      S                    0.310
     Ti    35      Dzz                  0.616
     Ti    35      Dzy                  0.485
     Ti    35      Dzx                  0.482
     Ti    35      Dxx-yy               0.574
     Ti    35      Dxy                  0.565
     Ti    35      Px                   0.330
     Ti    35      Py                   0.317
     Ti    35      Pz                   0.281
     Ti    36      S                    2.003
     Ti    36      Px                   2.005
     Ti    36      Py                   2.005
     Ti    36      Pz                   2.005
     Ti    36      S                    0.319
     Ti    36      Dzz                  0.592
     Ti    36      Dzy                  0.477
     Ti    36      Dzx                  0.520
     Ti    36      Dxx-yy               0.558
     Ti    36      Dxy                  0.568
     Ti    36      Px                   0.330
     Ti    36      Py                   0.305
     Ti    36      Pz                   0.316
     Ti    37      S                    2.002
     Ti    37      Px                   2.005
     Ti    37      Py                   2.004
     Ti    37      Pz                   2.005
     Ti    37      S                    0.308
     Ti    37      Dzz                  0.599
     Ti    37      Dzy                  0.475
     Ti    37      Dzx                  0.485
     Ti    37      Dxx-yy               0.560
     Ti    37      Dxy                  0.578
     Ti    37      Px                   0.333
     Ti    37      Py                   0.339
     Ti    37      Pz                   0.329
     Ti    38      S                    2.002
     Ti    38      Px                   2.005
     Ti    38      Py                   2.005
     Ti    38      Pz                   2.005
     Ti    38      S                    0.315
     Ti    38      Dzz                  0.598
     Ti    38      Dzy                  0.489
     Ti    38      Dzx                  0.476
     Ti    38      Dxx-yy               0.603
     Ti    38      Dxy                  0.539
     Ti    38      Px                   0.335
     Ti    38      Py                   0.299
     Ti    38      Pz                   0.324
     Ti    39      S                    2.003
     Ti    39      Px                   2.005
     Ti    39      Py                   2.005
     Ti    39      Pz                   2.005
     Ti    39      S                    0.308
     Ti    39      Dzz                  0.616
     Ti    39      Dzy                  0.468
     Ti    39      Dzx                  0.479
     Ti    39      Dxx-yy               0.584
     Ti    39      Dxy                  0.567
     Ti    39      Px                   0.332
     Ti    39      Py                   0.317
     Ti    39      Pz                   0.305
     Ti    40      S                    2.002
     Ti    40      Px                   2.005
     Ti    40      Py                   2.005
     Ti    40      Pz                   2.005
     Ti    40      S                    0.307
     Ti    40      Dzz                  0.624
     Ti    40      Dzy                  0.470
     Ti    40      Dzx                  0.493
     Ti    40      Dxx-yy               0.598
     Ti    40      Dxy                  0.541
     Ti    40      Px                   0.328
     Ti    40      Py                   0.287
     Ti    40      Pz                   0.292
     Ti    41      S                    2.003
     Ti    41      Px                   2.005
     Ti    41      Py                   2.005
     Ti    41      Pz                   2.006
     Ti    41      S                    0.295
     Ti    41      Dzz                  0.603
     Ti    41      Dzy                  0.483
     Ti    41      Dzx                  0.492
     Ti    41      Dxx-yy               0.566
     Ti    41      Dxy                  0.573
     Ti    41      Px                   0.318
     Ti    41      Py                   0.324
     Ti    41      Pz                   0.309
     Ti    42      S                    2.003
     Ti    42      Px                   2.005
     Ti    42      Py                   2.006
     Ti    42      Pz                   2.005
     Ti    42      S                    0.322
     Ti    42      Dzz                  0.613
     Ti    42      Dzy                  0.459
     Ti    42      Dzx                  0.498
     Ti    42      Dxx-yy               0.585
     Ti    42      Dxy                  0.566
     Ti    42      Px                   0.323
     Ti    42      Py                   0.315
     Ti    42      Pz                   0.322
     Ti    43      S                    2.003
     Ti    43      Px                   2.005
     Ti    43      Py                   2.005
     Ti    43      Pz                   2.005
     Ti    43      S                    0.308
     Ti    43      Dzz                  0.605
     Ti    43      Dzy                  0.481
     Ti    43      Dzx                  0.486
     Ti    43      Dxx-yy               0.571
     Ti    43      Dxy                  0.572
     Ti    43      Px                   0.325
     Ti    43      Py                   0.331
     Ti    43      Pz                   0.303
     Ti    44      S                    2.002
     Ti    44      Px                   2.005
     Ti    44      Py                   2.005
     Ti    44      Pz                   2.005
     Ti    44      S                    0.322
     Ti    44      Dzz                  0.601
     Ti    44      Dzy                  0.499
     Ti    44      Dzx                  0.487
     Ti    44      Dxx-yy               0.595
     Ti    44      Dxy                  0.546
     Ti    44      Px                   0.318
     Ti    44      Py                   0.304
     Ti    44      Pz                   0.319
     Ti    45      S                    2.002
     Ti    45      Px                   2.005
     Ti    45      Py                   2.005
     Ti    45      Pz                   2.004
     Ti    45      S                    0.327
     Ti    45      Dzz                  0.586
     Ti    45      Dzy                  0.502
     Ti    45      Dzx                  0.488
     Ti    45      Dxx-yy               0.630
     Ti    45      Dxy                  0.523
     Ti    45      Px                   0.336
     Ti    45      Py                   0.256
     Ti    45      Pz                   0.345
     Ti    46      S                    2.002
     Ti    46      Px                   2.005
     Ti    46      Py                   2.004
     Ti    46      Pz                   2.005
     Ti    46      S                    0.310
     Ti    46      Dzz                  0.614
     Ti    46      Dzy                  0.483
     Ti    46      Dzx                  0.489
     Ti    46      Dxx-yy               0.552
     Ti    46      Dxy                  0.574
     Ti    46      Px                   0.327
     Ti    46      Py                   0.338
     Ti    46      Pz                   0.306
      V     1      S                    2.001
      V     1      Px                   2.003
      V     1      Py                   2.003
      V     1      Pz                   2.003
      V     1      Dzz                  0.872
      V     1      Dzy                  0.637
      V     1      Dzx                  0.676
      V     1      Dxx-yy               0.762
      V     1      Dxy                  0.776
      V     1      S                    0.368
      V     1      Px                   0.340
      V     1      Py                   0.319
      V     1      Pz                   0.302
      V     2      S                    2.001
      V     2      Px                   2.003
      V     2      Py                   2.003
      V     2      Pz                   2.003
      V     2      Dzz                  0.805
      V     2      Dzy                  0.649
      V     2      Dzx                  0.743
      V     2      Dxx-yy               0.692
      V     2      Dxy                  0.839
      V     2      S                    0.377
      V     2      Px                   0.307
      V     2      Py                   0.331
      V     2      Pz                   0.295
  -------------------------------------------
                           Total:     596.000
  -------------------------------------------

     Atomic Populations (Mulliken)
     -----------------------------
Species          Ion     s       p       d       f      Total   Charge (e)
==========================================================================
  Al              1     0.926   2.078   0.000   0.000   3.004    -0.004
  Al              2     0.945   2.062   0.000   0.000   3.007    -0.007
  Al              3     0.934   2.090   0.000   0.000   3.024    -0.024
  Al              4     0.963   2.024   0.000   0.000   2.987     0.013
  Al              5     0.959   2.048   0.000   0.000   3.007    -0.007
  Al              6     0.965   2.028   0.000   0.000   2.992     0.008
  Ti              1     2.303   6.941   2.725   0.000  11.969     0.031
  Ti              2     2.317   6.964   2.714   0.000  11.995     0.005
  Ti              3     2.306   6.965   2.708   0.000  11.980     0.020
  Ti              4     2.301   7.014   2.701   0.000  12.016    -0.016
  Ti              5     2.306   6.947   2.708   0.000  11.961     0.039
  Ti              6     2.314   6.977   2.712   0.000  12.002    -0.002
  Ti              7     2.318   6.984   2.709   0.000  12.010    -0.010
  Ti              8     2.311   6.958   2.712   0.000  11.981     0.019
  Ti              9     2.321   6.977   2.694   0.000  11.992     0.008
  Ti             10     2.336   6.908   2.757   0.000  12.001    -0.001
  Ti             11     2.313   7.006   2.708   0.000  12.027    -0.027
  Ti             12     2.295   7.012   2.703   0.000  12.010    -0.010
  Ti             13     2.309   6.993   2.692   0.000  11.994     0.006
  Ti             14     2.322   6.954   2.722   0.000  11.998     0.002
  Ti             15     2.330   6.954   2.717   0.000  12.001    -0.001
  Ti             16     2.305   6.942   2.723   0.000  11.970     0.030
  Ti             17     2.310   7.011   2.705   0.000  12.026    -0.026
  Ti             18     2.318   6.972   2.720   0.000  12.011    -0.011
  Ti             19     2.313   7.005   2.701   0.000  12.020    -0.020
  Ti             20     2.322   6.918   2.727   0.000  11.966     0.034
  Ti             21     2.352   6.950   2.715   0.000  12.017    -0.017
  Ti             22     2.303   6.948   2.715   0.000  11.966     0.034
  Ti             23     2.302   6.970   2.715   0.000  11.987     0.013
  Ti             24     2.309   7.004   2.694   0.000  12.007    -0.007
  Ti             25     2.307   7.010   2.712   0.000  12.029    -0.029
  Ti             26     2.325   6.948   2.728   0.000  12.002    -0.002
  Ti             27     2.320   6.923   2.731   0.000  11.975     0.025
  Ti             28     2.324   6.955   2.718   0.000  11.997     0.003
  Ti             29     2.299   7.001   2.694   0.000  11.994     0.006
  Ti             30     2.327   6.973   2.720   0.000  12.020    -0.020
  Ti             31     2.308   7.013   2.695   0.000  12.016    -0.016
  Ti             32     2.313   6.970   2.691   0.000  11.975     0.025
  Ti             33     2.325   6.949   2.715   0.000  11.989     0.011
  Ti             34     2.307   6.979   2.698   0.000  11.985     0.015
  Ti             35     2.313   6.943   2.722   0.000  11.979     0.021
  Ti             36     2.322   6.966   2.715   0.000  12.003    -0.003
  Ti             37     2.311   7.015   2.697   0.000  12.022    -0.022
  Ti             38     2.317   6.972   2.704   0.000  11.994     0.006
  Ti             39     2.311   6.970   2.715   0.000  11.995     0.005
  Ti             40     2.309   6.922   2.727   0.000  11.958     0.042
  Ti             41     2.298   6.967   2.716   0.000  11.981     0.019
  Ti             42     2.325   6.976   2.721   0.000  12.023    -0.023
  Ti             43     2.310   6.974   2.714   0.000  11.998     0.002
  Ti             44     2.325   6.956   2.728   0.000  12.008    -0.008
  Ti             45     2.329   6.952   2.728   0.000  12.009    -0.009
  Ti             46     2.312   6.985   2.712   0.000  12.010    -0.010
  V               1     2.369   6.970   3.722   0.000  13.061    -0.061
  V               2     2.378   6.942   3.728   0.000  13.049    -0.049
==========================================================================

                 Bond                   Population      Length (A)
======================================================================
             Ti 16 -- V 1                    0.23        2.76533
             Ti 1  -- V 2                    0.19        2.76918
             Ti 41 -- V 2                    0.21        2.78692
              Al 1 -- Ti 5                   0.21        2.78945
             Ti 16 -- Ti 29                  0.15        2.79143
              Al 1 -- Ti 1                   0.21        2.79880
              Al 5 -- Al 6                   0.28        2.80035
              Al 4 -- Ti 40                  0.26        2.80104
             Ti 9  -- Ti 36                  0.22        2.80159
             Ti 1  -- Ti 34                  0.20        2.80242
              Al 1 -- Ti 40                  0.25        2.80636
             Ti 22 -- Ti 33                  0.23        2.80731
             Ti 40 -- V 2                    0.16        2.80803
             Ti 1  -- V 1                    0.25        2.80821
             Ti 35 -- Ti 36                  0.16        2.81185
              Al 1 -- V 1                    0.22        2.81367
             Ti 7  -- Ti 38                  0.18        2.81381
             Ti 31 -- Ti 32                  0.14        2.81450
             Ti 5  -- V 2                    0.17        2.81553
             Ti 26 -- Ti 39                  0.15        2.81703
             Ti 5  -- Ti 6                   0.12        2.81762
             Ti 23 -- Ti 33                  0.15        2.81803
             Ti 16 -- Ti 33                  0.16        2.81817
             Ti 14 -- Ti 15                  0.13        2.82142
             Ti 1  -- Ti 7                   0.14        2.82350
              Al 1 -- Ti 23                  0.23        2.82411
             Ti 34 -- V 2                    0.17        2.82503
             Ti 40 -- V 1                    0.21        2.82605
             Ti 22 -- V 2                    0.27        2.82634
             Ti 14 -- Ti 31                  0.16        2.82636
              Al 3 -- Ti 34                  0.22        2.82687
             Ti 10 -- Ti 14                  0.19        2.82765
              Al 2 -- Ti 22                  0.20        2.82784
              Al 4 -- Ti 22                  0.23        2.82861
             Ti 7  -- V 1                    0.18        2.82882
             Ti 15 -- Ti 46                  0.15        2.82909
             Ti 27 -- Ti 28                  0.15        2.82960
              Al 2 -- Ti 14                  0.20        2.83150
             Ti 45 -- Ti 46                  0.13        2.83259
              Al 2 -- Ti 45                  0.24        2.83274
              Al 4 -- Ti 45                  0.26        2.83426
              Al 2 -- Ti 33                  0.24        2.83450
             Ti 23 -- V 1                    0.22        2.83451
             Ti 11 -- V 1                    0.28        2.83457
              Al 5 -- Ti 35                  0.23        2.83458
             Ti 20 -- Ti 31                  0.13        2.83621
             Ti 22 -- Ti 29                  0.15        2.83673
              Al 1 -- Ti 10                  0.24        2.83713
              Al 6 -- Ti 46                  0.24        2.83728
             Ti 11 -- Ti 37                  0.26        2.83788
             Ti 20 -- Ti 21                  0.21        2.83791
              Al 3 -- Ti 3                   0.21        2.83933
             Ti 3  -- Ti 36                  0.13        2.83985
              Al 4 -- V 2                    0.21        2.84012
              Al 2 -- Ti 16                  0.23        2.84026
              Al 3 -- Ti 41                  0.22        2.84057
             Ti 37 -- Ti 46                  0.17        2.84082
              Al 5 -- Ti 39                  0.22        2.84085
             Ti 4  -- Ti 9                   0.24        2.84113
             Ti 15 -- Ti 16                  0.15        2.84117
             Ti 12 -- Ti 29                  0.12        2.84128
             Ti 1  -- Ti 6                   0.16        2.84172
             Ti 6  -- Ti 17                  0.19        2.84233
             Ti 9  -- Ti 10                  0.19        2.84280
              Al 6 -- Ti 44                  0.26        2.84309
             Ti 18 -- Ti 19                  0.17        2.84313
             Ti 22 -- Ti 34                  0.13        2.84317
             Ti 11 -- Ti 16                  0.12        2.84464
             Ti 17 -- Ti 24                  0.14        2.84532
             Ti 7  -- Ti 12                  0.21        2.84686
              Al 1 -- Ti 16                  0.25        2.84705
              Al 2 -- Ti 32                  0.22        2.84766
             Ti 29 -- V 1                    0.23        2.84842
             Ti 28 -- Ti 37                  0.15        2.84880
             Ti 23 -- Ti 28                  0.16        2.85036
             Ti 2  -- Ti 3                   0.15        2.85131
             Ti 6  -- Ti 11                  0.15        2.85148
             Ti 17 -- Ti 28                  0.16        2.85158
             Ti 29 -- Ti 30                  0.14        2.85219
             Ti 34 -- Ti 41                  0.18        2.85239
             Ti 29 -- Ti 33                  0.12        2.85248
             Ti 11 -- Ti 12                  0.13        2.85276
              Al 5 -- Ti 44                  0.27        2.85372
              Al 5 -- Ti 10                  0.26        2.85420
             Ti 7  -- Ti 23                  0.13        2.85427
             Ti 15 -- Ti 21                  0.29        2.85566
             Ti 4  -- Ti 36                  0.22        2.85584
             Ti 17 -- Ti 29                  0.24        2.85654
             Ti 33 -- Ti 41                  0.13        2.85673
             Ti 21 -- Ti 28                  0.17        2.85756
             Ti 24 -- Ti 25                  0.13        2.85768
             Ti 18 -- Ti 30                  0.22        2.85888
             Ti 25 -- Ti 32                  0.15        2.85928
             Ti 2  -- Ti 17                  0.15        2.85944
             Ti 20 -- Ti 35                  0.17        2.85948
             Ti 13 -- Ti 19                  0.25        2.86035
             Ti 11 -- Ti 29                  0.23        2.86057
             Ti 12 -- Ti 38                  0.23        2.86062
             Ti 45 -- V 2                    0.20        2.86068
             Ti 8  -- Ti 38                  0.15        2.86079
             Ti 1  -- Ti 41                  0.21        2.86146
              Al 4 -- Ti 5                   0.26        2.86174
              Al 1 -- Ti 27                  0.22        2.86178
             Ti 42 -- Ti 43                  0.15        2.86182
              Al 4 -- Ti 36                  0.25        2.86208
             Ti 19 -- Ti 26                  0.16        2.86251
             Ti 1  -- Ti 23                  0.22        2.86360
             Ti 27 -- Ti 32                  0.16        2.86369
              Al 5 -- Ti 8                   0.20        2.86378
             Ti 4  -- Ti 13                  0.14        2.86400
             Ti 25 -- Ti 30                  0.13        2.86414
              Al 3 -- Ti 1                   0.21        2.86423
             Ti 2  -- Ti 11                  0.17        2.86497
             Ti 10 -- Ti 40                  0.17        2.86511
             Ti 18 -- Ti 34                  0.17        2.86544
             Ti 12 -- V 1                    0.17        2.86566
             Ti 21 -- Ti 22                  0.20        2.86572
             Ti 32 -- Ti 43                  0.16        2.86583
              Al 3 -- Ti 43                  0.21        2.86621
             Ti 18 -- Ti 29                  0.14        2.86685
             Ti 2  -- Ti 42                  0.21        2.86688
              Al 2 -- Ti 20                  0.23        2.86770
             Ti 8  -- Ti 12                  0.14        2.86840
             Ti 36 -- Ti 43                  0.15        2.86853
             Ti 17 -- Ti 18                  0.14        2.86888
             Ti 14 -- Ti 44                  0.22        2.86939
             Ti 14 -- Ti 20                  0.27        2.86940
              Al 3 -- Ti 30                  0.26        2.87000
             Ti 34 -- Ti 40                  0.13        2.87008
              Al 4 -- Al 5                   0.22        2.87049
             Ti 13 -- Ti 42                  0.13        2.87067
             Ti 33 -- Ti 45                  0.16        2.87106
              Al 6 -- Ti 40                  0.24        2.87122
             Ti 39 -- Ti 44                  0.14        2.87147
             Ti 6  -- Ti 15                  0.15        2.87188
              Al 6 -- Ti 28                  0.22        2.87284
             Ti 3  -- Ti 19                  0.23        2.87354
             Ti 41 -- Ti 46                  0.17        2.87392
             Ti 17 -- Ti 34                  0.26        2.87478
             Ti 41 -- Ti 42                  0.15        2.87522
             Ti 13 -- Ti 31                  0.24        2.87537
              Al 4 -- Ti 20                  0.25        2.87612
             Ti 11 -- Ti 46                  0.14        2.87613
             Ti 16 -- Ti 22                  0.17        2.87729
             Ti 19 -- Ti 24                  0.14        2.87739
             Ti 8  -- Ti 9                   0.12        2.87781
             Ti 3  -- Ti 43                  0.24        2.87782
              Al 5 -- Ti 26                  0.26        2.87787
             Ti 6  -- Ti 28                  0.22        2.87798
             Ti 3  -- Ti 13                  0.26        2.87802
             Ti 26 -- Ti 27                  0.18        2.87806
             Ti 12 -- Ti 13                  0.13        2.87830
              Al 5 -- Ti 36                  0.26        2.87876
             Ti 25 -- Ti 26                  0.12        2.87898
             Ti 4  -- Ti 21                  0.14        2.87923
             Ti 8  -- Ti 31                  0.24        2.87949
             Ti 23 -- Ti 24                  0.17        2.87996
             Ti 6  -- V 2                    0.24        2.88000
             Ti 3  -- Ti 9                   0.14        2.88087
              Al 4 -- Al 6                   0.22        2.88171
             Ti 37 -- Ti 40                  0.14        2.88232
              Al 2 -- Ti 27                  0.26        2.88245
             Ti 4  -- Ti 19                  0.14        2.88252
             Ti 34 -- Ti 38                  0.14        2.88282
              Al 2 -- Ti 15                  0.23        2.88323
              Al 1 -- Ti 6                   0.23        2.88327
              Al 2 -- Ti 10                  0.26        2.88404
             Ti 15 -- Ti 44                  0.15        2.88416
             Ti 9  -- Ti 32                  0.25        2.88433
             Ti 18 -- Ti 31                  0.15        2.88459
             Ti 35 -- Ti 38                  0.15        2.88468
             Ti 13 -- Ti 14                  0.17        2.88477
             Ti 39 -- Ti 42                  0.13        2.88485
             Ti 14 -- Ti 32                  0.21        2.88510
             Ti 5  -- Ti 10                  0.20        2.88553
             Ti 11 -- Ti 42                  0.13        2.88577
             Ti 3  -- Ti 7                   0.15        2.88585
             Ti 9  -- Ti 27                  0.16        2.88590
             Ti 3  -- Ti 4                   0.14        2.88679
             Ti 8  -- Ti 39                  0.25        2.88684
             Ti 27 -- Ti 33                  0.16        2.88685
             Ti 8  -- Ti 35                  0.24        2.88708
             Ti 9  -- Ti 25                  0.13        2.88716
             Ti 11 -- Ti 41                  0.27        2.88733
             Ti 30 -- Ti 43                  0.14        2.88770
             Ti 9  -- Ti 26                  0.29        2.88823
              Al 3 -- Ti 18                  0.26        2.88833
             Ti 5  -- Ti 36                  0.13        2.88885
             Ti 8  -- Ti 14                  0.14        2.88918
              Al 3 -- Ti 42                  0.25        2.88927
             Ti 44 -- Ti 45                  0.20        2.88956
             Ti 30 -- Ti 41                  0.16        2.89080
              Al 3 -- Ti 2                   0.27        2.89116
             Ti 18 -- Ti 35                  0.16        2.89134
             Ti 5  -- Ti 45                  0.20        2.89262
              Al 6 -- Ti 26                  0.22        2.89274
             Ti 2  -- Ti 19                  0.15        2.89306
             Ti 2  -- Ti 13                  0.13        2.89337
             Ti 24 -- Ti 37                  0.15        2.89423
             Ti 38 -- Ti 39                  0.13        2.89463
             Ti 7  -- Ti 25                  0.15        2.89477
             Ti 13 -- Ti 44                  0.13        2.89529
              Al 3 -- Ti 35                  0.19        2.89550
             Ti 10 -- Ti 16                  0.14        2.89590
             Ti 8  -- Ti 13                  0.27        2.89630
             Ti 35 -- Ti 39                  0.22        2.89682
             Ti 30 -- Ti 42                  0.27        2.89754
              Al 1 -- V 2                    0.24        2.89802
             Ti 7  -- Ti 8                   0.14        2.89922
             Ti 10 -- Ti 27                  0.18        2.89927
             Ti 4  -- Ti 5                   0.13        2.89936
              Al 6 -- Ti 21                  0.28        2.90029
             Ti 4  -- Ti 14                  0.20        2.90110
             Ti 35 -- Ti 43                  0.24        2.90116
             Ti 17 -- Ti 22                  0.15        2.90174
             Ti 32 -- Ti 45                  0.15        2.90187
             Ti 4  -- Ti 15                  0.12        2.90200
             Ti 26 -- Ti 32                  0.27        2.90316
              Al 3 -- Ti 38                  0.25        2.90390
             Ti 29 -- Ti 34                  0.22        2.90436
             Ti 23 -- Ti 30                  0.14        2.90497
              Al 3 -- Ti 7                   0.25        2.90572
             Ti 3  -- Ti 35                  0.22        2.90618
             Ti 4  -- Ti 26                  0.25        2.90637
             Ti 12 -- Ti 31                  0.13        2.90825
             Ti 37 -- Ti 38                  0.13        2.90845
             Ti 25 -- Ti 31                  0.24        2.90914
             Ti 6  -- Ti 21                  0.15        2.90915
              Al 5 -- Ti 20                  0.27        2.90943
             Ti 33 -- Ti 46                  0.28        2.90962
             Ti 4  -- Ti 44                  0.25        2.90983
              Al 1 -- Ti 28                  0.22        2.91022
             Ti 20 -- Ti 32                  0.26        2.91040
              Al 2 -- Ti 21                  0.24        2.91079
             Ti 1  -- Ti 2                   0.17        2.91109
             Ti 10 -- Ti 15                  0.25        2.91218
              Al 6 -- Ti 27                  0.26        2.91220
             Ti 19 -- Ti 25                  0.24        2.91229
             Ti 5  -- Ti 9                   0.10        2.91264
              Al 4 -- Ti 21                  0.26        2.91388
             Ti 24 -- Ti 39                  0.12        2.91487
             Ti 38 -- V 1                    0.15        2.91542
             Ti 25 -- Ti 39                  0.24        2.91548
             Ti 37 -- V 1                    0.28        2.91581
              Al 1 -- Ti 33                  0.25        2.91658
             Ti 27 -- Ti 45                  0.17        2.91745
             Ti 36 -- Ti 45                  0.21        2.91748
              Al 4 -- Ti 10                  0.27        2.91791
             Ti 30 -- Ti 31                  0.11        2.91822
             Ti 22 -- Ti 40                  0.21        2.91959
             Ti 12 -- Ti 42                  0.23        2.91986
             Ti 21 -- Ti 26                  0.14        2.92001
             Ti 19 -- Ti 31                  0.25        2.92044
             Ti 12 -- Ti 30                  0.24        2.92277
             Ti 28 -- Ti 46                  0.26        2.92316
             Ti 24 -- Ti 42                  0.28        2.92388
             Ti 33 -- V 2                    0.32        2.92498
             Ti 23 -- Ti 29                  0.24        2.92564
             Ti 26 -- Ti 44                  0.26        2.92581
             Ti 20 -- Ti 26                  0.23        2.92662
             Ti 37 -- Ti 42                  0.11        2.92736
             Ti 17 -- Ti 37                  0.27        2.92758
             Ti 46 -- V 2                    0.23        2.92799
             Ti 19 -- Ti 20                  0.14        2.92839
              Al 6 -- Ti 10                  0.27        2.92845
             Ti 12 -- Ti 18                  0.19        2.92887
             Ti 25 -- Ti 43                  0.25        2.92973
             Ti 2  -- Ti 12                  0.22        2.93105
             Ti 31 -- Ti 43                  0.25        2.93145
             Ti 5  -- Ti 27                  0.21        2.93194
             Ti 3  -- Ti 25                  0.24        2.93290
             Ti 43 -- Ti 44                  0.14        2.93308
             Ti 13 -- Ti 43                  0.27        2.93311
             Ti 28 -- Ti 33                  0.26        2.93355
             Ti 18 -- Ti 24                  0.25        2.93440
             Ti 20 -- Ti 36                  0.24        2.93514
             Ti 13 -- Ti 39                  0.27        2.93553
              Al 2 -- Al 4                   0.18        2.93769
             Ti 8  -- Ti 25                  0.24        2.93823
             Ti 6  -- Ti 46                  0.23        2.94080
             Ti 39 -- Ti 43                  0.25        2.94104
             Ti 34 -- Ti 37                  0.25        2.94154
             Ti 16 -- Ti 40                  0.17        2.94249
             Ti 24 -- Ti 38                  0.24        2.94314
             Ti 19 -- Ti 39                  0.26        2.94380
             Ti 21 -- Ti 27                  0.26        2.94552
             Ti 5  -- Ti 15                  0.22        2.94606
             Ti 38 -- Ti 42                  0.29        2.94633
             Ti 24 -- Ti 30                  0.29        2.94658
             Ti 37 -- Ti 41                  0.22        2.94742
             Ti 18 -- Ti 38                  0.22        2.94965
             Ti 2  -- Ti 24                  0.26        2.94969
             Ti 4  -- Ti 20                  0.20        2.95106
             Ti 17 -- Ti 23                  0.25        2.95879
              Al 5 -- Ti 14                  0.24        2.96093
             Ti 2  -- Ti 18                  0.26        2.96119
             Ti 2  -- Ti 7                   0.24        2.96171
             Ti 19 -- Ti 35                  0.27        2.96179
             Ti 7  -- Ti 30                  0.29        2.96430
             Ti 5  -- Ti 21                  0.26        2.96466
             Ti 3  -- Ti 8                   0.26        2.96619
             Ti 31 -- Ti 35                  0.23        2.97254
              Al 5 -- Ti 9                   0.25        2.97386
             Ti 11 -- Ti 17                  0.26        2.97419
             Ti 7  -- Ti 24                  0.22        2.98244
              Al 6 -- Ti 15                  0.24        2.98348
             Ti 32 -- Ti 44                  0.30        2.98756
             Ti 34 -- V 1                    0.26        2.98838
             Ti 23 -- Ti 37                  0.24        2.98928
             Ti 29 -- Ti 41                  0.22        2.99511
             Ti 9  -- Ti 14                  0.24        2.99761
             Ti 22 -- Ti 28                  0.24        2.99980
======================================================================

 
 A BibTeX formatted list of references used in this run has been written to 
 sqs_hcp_sc3x3x3_Ti46Al6V2_frame0_12.bib
 
Initialisation time =     19.32 s
Calculation time    =   2097.23 s
Finalisation time   =      0.33 s
Total time          =   2116.88 s
Peak Memory Use     = 1903504 kB
 
Overall parallel efficiency rating: Mediocre (56%)
 
Data was distributed by:-
G-vector (24-way); efficiency rating: Mediocre (56%)
k-point (14-way); efficiency rating: Excellent (98%)
