 +-------------------------------------------------+
 |                                                 |
 |      CCC   AA    SSS  TTTTT  EEEEE  PPPP        |
 |     C     A  A  S       T    E      P   P       |
 |     C     AAAA   SS     T    EEE    PPPP        |
 |     C     A  A     S    T    E      P           |
 |      CCC  A  A  SSS     T    EEEEE  P           |
 |                                                 |
 +-------------------------------------------------+
 |                                                 |
 | Welcome to Academic Release CASTEP version 24.1 |
 | Ab Initio Total Energy Program                  |
 |                                                 |
 | Authors:                                        |
 | M. Segall, M. Probert, C. Pickard, P. Hasnip,   |
 | S. Clark, K. Refson, J. R. Yates,               |
 | A. Bartok-Partay, M. Payne                      |
 |                                                 |
 | Contributors:                                   |
 | P. Lindan, P. Haynes, J. White, V. Milman,      |
 | N. Govind, M. Gibson, P. Tulip, V. Cocula,      |
 | B. Montanari, D. Quigley, M. Glover,            |
 | L. Bernasconi, A. Perlov, M. Plummer,           |
 | E. McNellis, J. Meyer, J. Gale, D. Jochym       |
 | J. Aarons, B. Walker, R. Gillen, D. Jones       |
 | T. Green, I. J. Bush, C. J. Armstrong,          |
 | E. J. Higgins, E. L. Brown, M. S. McFly,        |
 | J. Wilkins, B-C. Shih, P. J. P. Byrne,          |
 | R. J. Maurer, J. C. Womack, J. Dziedzic,        |
 | L. LeBlanc, T. K. Stenczel, J. Kermode,         |
 | S. Sturniolo, B. Shi, B. Durham, M. Evans,      |
 | M. J. Smith, A. Tamerus, Z. Hawkhead,           |
 | V. Ravindran, T. Hollins, S. A. Joyce,          |
 | R. T. Strong, A. M. Reilly                      |
 |                                                 |
 | Copyright (c) 2000 - 2023                       |
 |                                                 |
 |     Distributed under license from Cambridge    |
 |     Enterprise for academic use only.           |
 |                                                 |
 | Please cite                                     |
 |                                                 |
 |     "First principles methods using CASTEP"     |
 |                                                 |
 |         Zeitschrift fuer Kristallographie       |
 |           220(5-6) pp. 567-570 (2005)           |
 |                                                 |
 | S. J. Clark, M. D. Segall, C. J. Pickard,       |
 | P. J. Hasnip, M. J. Probert, K. Refson,         |
 | M. C. Payne                                     |
 |                                                 |
 |       in all publications arising from          |
 |              your use of CASTEP                 |
 |                                                 |
 +-------------------------------------------------+
 |                                                 |
 |              http://www.castep.org              |
 |                                                 |
 +-------------------------------------------------+



 Compiled for linux_x86_64_gfortran10 on Tue, 02 May 2023 15:31:46 +0100
 from code version db08e394c+  default  Mon May 1 16:40:39 2023 +0100
 Compiler: GNU Fortran 10.2.0; Optimisation: fast
 Comms   : Open MPI v4.0.5
 MATHLIBS: openblas (LAPACK version 3.9.0)
 FFT Lib : fftw3 version fftw-3.3.8-sse2-avx-avx2-avx2_128
 Fundamental constants values: CODATA 2018

 Run started: Wed, 07 Feb 2024 19:02:41 +0000
 Info: number of up-spin electrons is not equal to the
       number of down-spins but spin_polarized=false
     - consider setting spin_polarized=true.

 Atomic calculation performed for Al: 1s2 2s2 2p6 3s2 3p1

 Converged in 54 iterations to an ae energy of -6603.783 eV

   ============================================================                
   | Pseudopotential Report - Date of generation  7-02-2024   |                
   ------------------------------------------------------------                
   | Element: Al Ionic charge:  3.00 Level of theory: PBE     |                
   | Atomic Solver: Koelling-Harmon                           |                
   |                                                          |                
   |               Reference Electronic Structure             |                
   |         Orbital         Occupation         Energy        |                
   |            3s              2.000           -0.285        |                
   |            3p              1.000           -0.100        |                
   |                                                          |                
   |                 Pseudopotential Definition               |                
   |        Beta     l      e      Rc     scheme   norm       |                
   |          1      0   -0.285   2.192     qc      0         |                
   |          2      0    0.250   2.192     qc      0         |                
   |          3      1   -0.100   2.192     qc      0         |                
   |          4      1    0.250   2.192     qc      0         |                
   |          5      2    0.000   2.000     qc      0         |                
   |          6      2    0.250   2.000     qc      0         |                
   |         loc     3    0.000   2.192     pn      0         |                
   |                                                          |                
   | Augmentation charge Rinner = 1.398                       |                
   | Partial core correction Rc = 1.398                       |                
   ------------------------------------------------------------                
   | "3|2.2|2.2|1.4|4|5|5|30:31:32U2U2"                       |                
   ------------------------------------------------------------                
   |      Author: Chris J. Pickard, Cambridge University      |                
   ============================================================                

 Atomic calculation performed for Ti: 1s2 2s2 2p6 3s2 3p6 3d2 4s2

 Converged in 79 iterations to an ae energy of -23226.658 eV

   ============================================================                
   | Pseudopotential Report - Date of generation  7-02-2024   |                
   ------------------------------------------------------------                
   | Element: Ti Ionic charge: 12.00 Level of theory: PBE     |                
   | Atomic Solver: Koelling-Harmon                           |                
   |                                                          |                
   |               Reference Electronic Structure             |                
   |         Orbital         Occupation         Energy        |                
   |            3s              2.000           -2.302        |                
   |            3p              6.000           -1.428        |                
   |            4s              2.000           -0.164        |                
   |            3d              2.000           -0.157        |                
   |                                                          |                
   |                 Pseudopotential Definition               |                
   |        Beta     l      e      Rc     scheme   norm       |                
   |          1      0   -2.302   1.793     qc      0         |                
   |          2      0   -0.164   1.793     qc      0         |                
   |          3      0    0.250   1.793     qc      0         |                
   |          4      1   -1.428   1.793     qc      0         |                
   |          5      1    0.250   1.793     qc      0         |                
   |          6      2   -0.157   1.793     qc      0         |                
   |          7      2    0.250   1.793     qc      0         |                
   |         loc     3    0.000   1.793     pn      0         |                
   |                                                          |                
   | Augmentation charge Rinner = 1.263                       |                
   | Partial core correction Rc = 1.263                       |                
   ------------------------------------------------------------                
   | "3|1.8|9|10|11|30U:40:31:32(qc=5.5)"                     |                
   ------------------------------------------------------------                
   |      Author: Chris J. Pickard, Cambridge University      |                
   ============================================================                

 Atomic calculation performed for V: 1s2 2s2 2p6 3s2 3p6 3d3 4s2

 Converged in 81 iterations to an ae energy of -25823.733 eV

   ============================================================                
   | Pseudopotential Report - Date of generation  7-02-2024   |                
   ------------------------------------------------------------                
   | Element: V Ionic charge: 13.00 Level of theory: PBE      |                
   | Atomic Solver: Koelling-Harmon                           |                
   |                                                          |                
   |               Reference Electronic Structure             |                
   |         Orbital         Occupation         Energy        |                
   |            3s              2.000           -2.581        |                
   |            3p              6.000           -1.618        |                
   |            3d              3.000           -0.190        |                
   |            4s              2.000           -0.173        |                
   |                                                          |                
   |                 Pseudopotential Definition               |                
   |        Beta     l      e      Rc     scheme   norm       |                
   |          1      0   -2.581   1.803     qc      0         |                
   |          2      0   -0.173   1.803     qc      0         |                
   |          3      0    0.250   1.803     qc      0         |                
   |          4      1   -1.618   1.803     qc      0         |                
   |          5      1    0.250   1.803     qc      0         |                
   |          6      2   -0.190   1.803     qc      0         |                
   |          7      2    0.250   1.803     qc      0         |                
   |         loc     3    0.000   1.803     pn      0         |                
   |                                                          |                
   | Augmentation charge Rinner = 0.600                       |                
   | Partial core correction Rc = 0.600                       |                
   ------------------------------------------------------------                
   | "3|1.8|1.8|0.6|12|14|16|30U:40:31:32(qc=7)"              |                
   ------------------------------------------------------------                
   |      Author: Chris J. Pickard, Cambridge University      |                
   ============================================================                

 Pseudo atomic calculation performed for Al 3s2 3p1

 Converged in 15 iterations to a total energy of -107.1308 eV

 Pseudo atomic calculation performed for Ti 3s2 3p6 3d2 4s2

 Converged in 34 iterations to a total energy of -1587.0236 eV

 Pseudo atomic calculation performed for V 3s2 3p6 3d3 4s2

 Converged in 35 iterations to a total energy of -2065.7874 eV
 Calculation parallelised over 240 processes.
 Data is distributed by G-vector(16-way) and k-point(15-way)

 ************************************ Title ************************************
 

 ***************************** General Parameters ******************************
  
 output verbosity                               : normal  (1)
 write checkpoint data to                       : sqs_hex_sc3x3x3_Ti70Al8V3_frame0_11.check
 type of calculation                            : single point energy
 stress calculation                             : on
 density difference calculation                 : off
 electron localisation func (ELF) calculation   : off
 Hirshfeld analysis                             : off
 polarisation (Berry phase) analysis            : off
 molecular orbital projected DOS                : off
 deltaSCF calculation                           : off
 unlimited duration calculation
 timing information                             : on
 memory usage estimate                          : on
 write extra output files                       : on
 write final potential to formatted file        : off
 write final density to formatted file          : off
 write BibTeX reference list                    : on
 write OTFG pseudopotential files               : on
 write electrostatic potential file             : on
 write bands file                               : on
 checkpoint writing                             : off
  
 output         length unit                     : A
 output           mass unit                     : amu
 output           time unit                     : ps
 output         charge unit                     : e
 output           spin unit                     : hbar/2
 output         energy unit                     : eV
 output          force unit                     : eV/A
 output       velocity unit                     : A/ps
 output       pressure unit                     : GPa
 output     inv_length unit                     : 1/A
 output      frequency unit                     : cm-1
 output force constant unit                     : eV/A**2
 output         volume unit                     : A**3
 output   IR intensity unit                     : (D/A)**2/amu
 output         dipole unit                     : D
 output         efield unit                     : eV/A/e
 output        entropy unit                     : J/mol/K
 output    efield chi2 unit                     : pm/V
  
 wavefunctions paging                           : none
 random number generator seed                   :  190241884
 data distribution                              : k-point only
 optimization strategy                          : maximize speed(+++)

 *********************** Exchange-Correlation Parameters ***********************
  
 using functional                               : Perdew Burke Ernzerhof
 relativistic treatment                         : Koelling-Harmon
 DFT+D: Semi-empirical dispersion correction    : off

 ************************* Pseudopotential Parameters **************************
  
 pseudopotential representation                 : reciprocal space
 <beta|phi> representation                      : reciprocal space
 spin-orbit coupling                            : off

 **************************** Basis Set Parameters *****************************
  
 plane wave basis set cut-off                   :   800.0000   eV
 size of standard grid                          :     2.0000
 size of   fine   gmax                          :    28.9810   1/A
 largest prime factor in FFT                    :          5
 finite basis set correction                    : automatic
 number of sample energies                      :          3
           sample  spacing                      :     5.0000   eV

 **************************** Electronic Parameters ****************************
  
 number of  electrons                           :  903.0    
 net charge of system                           :  0.000    
 treating system as non-spin-polarized
 number of bands                                :        487

 ********************* Electronic Minimization Parameters **********************
  
 Method: Treating system as metallic with density mixing treatment of electrons,
         and number of  SD  steps               :          1
         and number of  CG  steps               :          4
  
 total energy / atom convergence tol.           : 0.1000E-05   eV
 eigen-energy convergence tolerance             : 0.1663E-06   eV
 max force / atom convergence tol.              : ignored
 convergence tolerance window                   :          3   cycles
 max. number of SCF cycles                      :         30
 number of fixed-spin iterations                :         10
 smearing scheme                                : Gaussian
 smearing width                                 : 0.5000E-01   eV
 Fermi energy convergence tolerance             : 0.2721E-13   eV
 periodic dipole correction                     : NONE

 ************************** Density Mixing Parameters **************************
  
 density-mixing scheme                          : Pulay
 max. length of mixing history                  :         20
 charge density mixing amplitude                : 0.8000    
 cut-off energy for mixing                      :  800.0       eV
 charge density mixing g-vector                 :  1.500       1/A

 *********************** Population Analysis Parameters ************************
  
 Population analysis with cutoff                :  3.000       A
 Population analysis output                     : summary and pdos components

 ******************************* Developer Code ********************************
  
 PARALLEL: kpoint=15 : ENDPARALLEL
 no_improve_wvfn

 *******************************************************************************
  

                           -------------------------------
                                      Unit Cell
                           -------------------------------
        Real Lattice(A)                      Reciprocal Lattice(1/A)
     6.7668260   -11.8388760     0.0000590        0.464263844  -0.265362409   0.000002194
     6.7668260    11.8388760    -0.0000200        0.464263844   0.265362409   0.000000439
    -0.0000240     0.0000280     8.4646560       -0.000002139   0.000002477   0.742284779

                       Lattice parameters(A)       Cell Angles
                    a =     13.636309          alpha =   90.000000
                    b =     13.636309          beta  =   89.999997
                    c =      8.464656          gamma =  120.497440

                       Current cell volume =          1356.234507       A**3
                                   density =             2.742422   AMU/A**3
                                           =             4.553898     g/cm^3

                           -------------------------------
                                     Cell Contents
                           -------------------------------
                         Total number of ions in cell =   81
                      Total number of species in cell =    3
                        Max number of any one species =   70

            xxxxxxxxxxxxxxxxxxxxxxxxxxxxxxxxxxxxxxxxxxxxxxxxxxxxxxxxxxxx
            x  Element    Atom        Fractional coordinates of atoms  x
            x            Number           u          v          w      x
            x----------------------------------------------------------x
            x  Al           1        -0.000247  -0.001326   0.330733   x 
            x  Al           2         0.561171   0.117172   0.794242   x 
            x  Al           3         0.552346   0.444073   0.652557   x 
            x  Al           4         0.560953   0.442024   0.973541   x 
            x  Al           5         0.336101   0.664673  -0.004848   x 
            x  Al           6         0.557634   0.777502   0.155799   x 
            x  Al           7         0.450688   0.900541   0.839547   x 
            x  Al           8         0.779252   0.889231   0.832163   x 
            x  Ti           1        -0.001779  -0.002587  -0.003597   x 
            x  Ti           2         0.108549   0.219909   0.163498   x 
            x  Ti           3         0.222498   0.110493   0.162162   x 
            x  Ti           4         0.106828   0.220019   0.497345   x 
            x  Ti           5         0.221687   0.110436   0.495743   x 
            x  Ti           6        -0.001662  -0.002396   0.665211   x 
            x  Ti           7         0.108640   0.218419   0.830768   x 
            x  Ti           8         0.224869   0.111682   0.829381   x 
            x  Ti           9         0.003632   0.336991  -0.002433   x 
            x  Ti          10         0.115427   0.556488   0.162964   x 
            x  Ti          11         0.225239   0.444777   0.164822   x 
            x  Ti          12         0.002551   0.334690   0.332524   x 
            x  Ti          13         0.112660   0.557161   0.495839   x 
            x  Ti          14         0.223460   0.446833   0.499970   x 
            x  Ti          15        -0.000455   0.335350   0.666586   x 
            x  Ti          16         0.109243   0.556232   0.829239   x 
            x  Ti          17         0.221769   0.444388   0.831850   x 
            x  Ti          18         0.000365   0.665542  -0.004249   x 
            x  Ti          19         0.112536   0.889715   0.162442   x 
            x  Ti          20         0.217888   0.775277   0.164047   x 
            x  Ti          21        -0.005464   0.664090   0.328735   x 
            x  Ti          22         0.113142   0.888943   0.494455   x 
            x  Ti          23         0.221125   0.776339   0.492681   x 
            x  Ti          24        -0.004545   0.664505   0.663284   x 
            x  Ti          25         0.109696   0.888687   0.827867   x 
            x  Ti          26         0.224622   0.779543   0.828082   x 
            x  Ti          27         0.333992   0.000309  -0.006320   x 
            x  Ti          28         0.451283   0.234852   0.159903   x 
            x  Ti          29         0.556528   0.110575   0.142310   x 
            x  Ti          30         0.336418   0.005066   0.326601   x 
            x  Ti          31         0.452068   0.236456   0.487518   x 
            x  Ti          32         0.334858   0.002202   0.659143   x 
            x  Ti          33         0.451035   0.232520   0.825347   x 
            x  Ti          34         0.325672   0.330257  -0.001417   x 
            x  Ti          35         0.451406   0.548786   0.155394   x 
            x  Ti          36         0.558241   0.447419   0.310247   x 
            x  Ti          37         0.320581   0.326511   0.328374   x 
            x  Ti          38         0.449629   0.546337   0.489433   x 
            x  Ti          39         0.321492   0.327665   0.659526   x 
            x  Ti          40         0.449650   0.548696   0.821232   x 
            x  Ti          41         0.439522   0.885989   0.165315   x 
            x  Ti          42         0.335897   0.666633   0.329957   x 
            x  Ti          43         0.446670   0.896220   0.507807   x 
            x  Ti          44         0.552530   0.775180   0.482160   x 
            x  Ti          45         0.337370   0.669584   0.661591   x 
            x  Ti          46         0.554897   0.777830   0.828963   x 
            x  Ti          47         0.667139  -0.002828  -0.004772   x 
            x  Ti          48         0.780331   0.221598   0.168313   x 
            x  Ti          49         0.888455   0.112281   0.165778   x 
            x  Ti          50         0.662668  -0.004470   0.329432   x 
            x  Ti          51         0.770173   0.217601   0.500950   x 
            x  Ti          52         0.886936   0.114703   0.494753   x 
            x  Ti          53         0.667112  -0.005315   0.663059   x 
            x  Ti          54         0.782897   0.225112   0.839423   x 
            x  Ti          55         0.889225   0.112704   0.830038   x 
            x  Ti          56         0.769794   0.544721   0.135186   x 
            x  Ti          57         0.892755   0.443330   0.164231   x 
            x  Ti          58         0.671932   0.327119   0.321028   x 
            x  Ti          59         0.762578   0.547571   0.485135   x 
            x  Ti          60         0.888702   0.444169   0.500467   x 
            x  Ti          61         0.669707   0.333575   0.663686   x 
            x  Ti          62         0.877221   0.448702   0.837333   x 
            x  Ti          63         0.671184   0.674149  -0.005626   x 
            x  Ti          64         0.782764   0.892879   0.161762   x 
            x  Ti          65         0.888461   0.774609   0.169204   x 
            x  Ti          66         0.675867   0.682590   0.325152   x 
            x  Ti          67         0.781058   0.892616   0.504270   x 
            x  Ti          68         0.889891   0.775228   0.499151   x 
            x  Ti          69         0.670677   0.675987   0.657990   x 
            x  Ti          70         0.885427   0.769594   0.834433   x 
            x  V            1         0.552039   0.117615   0.474329   x 
            x  V            2         0.663753   0.316479  -0.004301   x 
            x  V            3         0.761099   0.553177   0.803565   x 
            xxxxxxxxxxxxxxxxxxxxxxxxxxxxxxxxxxxxxxxxxxxxxxxxxxxxxxxxxxxx


                         No user defined ionic velocities

                           -------------------------------
                                   Details of Species
                           -------------------------------

                               Mass of species in AMU
                                    Al   26.9815400
                                    Ti   47.8670000
                                    V   50.9415000

                          Electric Quadrupole Moment (Barn)
                                    Al    0.1466000 Isotope 27
                                    Ti    0.3020000 Isotope 47
                                    V   -0.0520000 Isotope 51

                          Files used for pseudopotentials:
                                    Al 3|2.2|2.2|1.4|4|5|5|30:31:32U2U2
                                    Ti 3|1.8|9|10|11|30U:40:31:32(qc=5.5)
                                    V 3|1.8|1.8|0.6|12|14|16|30U:40:31:32(qc=7)

                           -------------------------------
                              k-Points For BZ Sampling
                           -------------------------------
                       MP grid size for SCF calculation is  5  5  6
                            with an offset of   0.000  0.000  0.000
                       Number of kpoints used =            75

                           -------------------------------
                               Symmetry and Constraints
                           -------------------------------

                      Maximum deviation from symmetry =  0.00000         ANG

                      Number of symmetry operations   =           1
                      Number of ionic constraints     =           3
                      Point group of crystal =     1: C1, 1, 1
                      Space group of crystal =     1: P1, P 1

             Set iprint > 1 for details on symmetry rotations/translations

                         Centre of mass is constrained
             Set iprint > 1 for details of linear ionic constraints

                         Number of cell constraints= 0
                         Cell constraints are:  1 2 3 4 5 6

                         External pressure/stress (GPa)
                          0.00000   0.00000   0.00000
                                    0.00000   0.00000
                                              0.00000
 
+---------------- MEMORY AND SCRATCH DISK ESTIMATES PER PROCESS --------------+
|                                                     Memory          Disk    |
| Baseline code, static data and system overhead      591.0 MB         0.0 MB |
| BLAS internal memory storage                          0.0 MB         0.0 MB |
| Model and support data                              923.5 MB         0.0 MB |
| Electronic energy minimisation requirements         436.4 MB         0.0 MB |
| Force calculation requirements                       15.9 MB         0.0 MB |
| Stress calculation requirements                      17.2 MB         0.0 MB |
|                                               ----------------------------- |
| Approx. total storage required per process         1950.9 MB         0.0 MB |
|                                                                             |
| Requirements will fluctuate during execution and may exceed these estimates |
+-----------------------------------------------------------------------------+
Calculating finite basis set correction with  3 cut-off energies.
Calculating total energy with cut-off of  790.000 eV.
------------------------------------------------------------------------ <-- SCF
SCF loop      Energy           Fermi           Energy gain       Timer   <-- SCF
                               energy          per atom          (sec)   <-- SCF
------------------------------------------------------------------------ <-- SCF
Initial  -1.06841630E+005  0.00000000E+000                        34.55  <-- SCF
      1  -1.15669678E+005  1.19159650E+001   1.08988251E+002     225.94  <-- SCF
      2  -1.18525645E+005  9.31035223E+000   3.52588463E+001     384.75  <-- SCF
      3  -1.18686712E+005  9.10410477E+000   1.98847597E+000     547.43  <-- SCF
      4  -1.18709127E+005  8.27817000E+000   2.76729184E-001     738.88  <-- SCF
      5  -1.18694650E+005  8.50094825E+000  -1.78722125E-001     936.01  <-- SCF
      6  -1.18687700E+005  8.66271705E+000  -8.58102669E-002    1124.94  <-- SCF
      7  -1.18682920E+005  8.68193413E+000  -5.90042956E-002    1321.11  <-- SCF
      8  -1.18684063E+005  8.63010244E+000   1.41057318E-002    1512.56  <-- SCF
      9  -1.18682822E+005  8.62941535E+000  -1.53165819E-002    1691.23  <-- SCF
     10  -1.18682603E+005  8.61306850E+000  -2.70093319E-003    1877.50  <-- SCF
     11  -1.18682685E+005  8.60817849E+000   1.00322105E-003    2065.77  <-- SCF
     12  -1.18682601E+005  8.60569169E+000  -1.03479269E-003    2239.35  <-- SCF
     13  -1.18682586E+005  8.60629582E+000  -1.79588880E-004    2422.62  <-- SCF
     14  -1.18682587E+005  8.60672496E+000   7.35588194E-006    2599.82  <-- SCF
     15  -1.18682585E+005  8.60673911E+000  -2.51849534E-005    2752.94  <-- SCF
     16  -1.18682585E+005  8.60676427E+000   2.79505992E-006    2904.16  <-- SCF
     17  -1.18682585E+005  8.60685250E+000  -2.92865201E-006    3036.97  <-- SCF
     18  -1.18682585E+005  8.60685154E+000   3.26657230E-008    3143.86  <-- SCF
     19  -1.18682585E+005  8.60684180E+000  -2.78944351E-008    3250.30  <-- SCF
------------------------------------------------------------------------ <-- SCF
 
Final energy, E             =  -118682.4765531     eV
Final free energy (E-TS)    =  -118682.5847492     eV
(energies not corrected for finite basis set)
 
NB est. 0K energy (E-0.5TS)      =  -118682.5306512     eV
 
Calculating total energy with cut-off of  795.000 eV.
------------------------------------------------------------------------ <-- SCF
SCF loop      Energy           Fermi           Energy gain       Timer   <-- SCF
                               energy          per atom          (sec)   <-- SCF
------------------------------------------------------------------------ <-- SCF
Initial  -1.18682477E+005  0.00000000E+000                      3280.68  <-- SCF
      1  -1.18682587E+005  8.60695228E+000   1.36429498E-003    3420.69  <-- SCF
      2  -1.18682587E+005  8.60695037E+000   3.12416543E-006    3566.38  <-- SCF
      3  -1.18682615E+005  8.60532790E+000   3.47761639E-004    3747.69  <-- SCF
      4  -1.18682586E+005  8.60754390E+000  -3.57389654E-004    3921.83  <-- SCF
      5  -1.18682586E+005  8.60687224E+000  -5.26244669E-006    4084.88  <-- SCF
      6  -1.18682586E+005  8.60683329E+000   1.92620277E-006    4220.02  <-- SCF
      7  -1.18682586E+005  8.60683669E+000  -3.31325857E-007    4329.17  <-- SCF
      8  -1.18682586E+005  8.60681717E+000  -1.14639846E-007    4434.04  <-- SCF
------------------------------------------------------------------------ <-- SCF
 
Final energy, E             =  -118682.4780015     eV
Final free energy (E-TS)    =  -118682.5861897     eV
(energies not corrected for finite basis set)
 
NB est. 0K energy (E-0.5TS)      =  -118682.5320956     eV
 
Calculating total energy with cut-off of  800.000 eV.
------------------------------------------------------------------------ <-- SCF
SCF loop      Energy           Fermi           Energy gain       Timer   <-- SCF
                               energy          per atom          (sec)   <-- SCF
------------------------------------------------------------------------ <-- SCF
Initial  -1.18682478E+005  0.00000000E+000                      4464.67  <-- SCF
      1  -1.18682594E+005  8.60682863E+000   1.43079667E-003    4627.60  <-- SCF
      2  -1.18682594E+005  8.60682621E+000   2.95443823E-006    4773.01  <-- SCF
      3  -1.18682748E+005  8.60512327E+000   1.90229411E-003    4957.81  <-- SCF
      4  -1.18682589E+005  8.60865722E+000  -1.96338551E-003    5136.94  <-- SCF
      5  -1.18682587E+005  8.60687777E+000  -2.22389346E-005    5302.64  <-- SCF
      6  -1.18682588E+005  8.60687809E+000   8.79065948E-006    5467.11  <-- SCF
      7  -1.18682588E+005  8.60677801E+000  -2.58540832E-006    5611.00  <-- SCF
      8  -1.18682588E+005  8.60677134E+000  -1.98665477E-006    5727.86  <-- SCF
      9  -1.18682588E+005  8.60679234E+000  -6.54582444E-008    5834.83  <-- SCF
     10  -1.18682588E+005  8.60681810E+000  -6.15824896E-008    5940.55  <-- SCF
------------------------------------------------------------------------ <-- SCF
 
Final energy, E             =  -118682.4793640     eV
Final free energy (E-TS)    =  -118682.5875536     eV
(energies not corrected for finite basis set)
 
NB est. 0K energy (E-0.5TS)      =  -118682.5334588     eV
 
 For future reference: finite basis dEtot/dlog(Ecut) =      -0.223088eV
 Total energy corrected for finite basis set = -118682.587551 eV

 ************************** Forces **************************
 *                                                          *
 *               Cartesian components (eV/A)                *
 * -------------------------------------------------------- *
 *                         x            y            z      *
 *                                                          *
 * Al              1      0.02803      0.02499      0.01330 *
 * Al              2     -0.22318     -0.02396      0.06888 *
 * Al              3      0.09667     -0.02080     -0.00615 *
 * Al              4      0.02242      0.05912     -0.00888 *
 * Al              5     -0.03315      0.02010     -0.04313 *
 * Al              6     -0.08246      0.10948     -0.03026 *
 * Al              7     -0.15112     -0.19570      0.15429 *
 * Al              8      0.00168     -0.00234      0.04433 *
 * Ti              1      0.03412     -0.07503      0.05801 *
 * Ti              2     -0.14130      0.03718      0.02693 *
 * Ti              3      0.04466     -0.04959     -0.00705 *
 * Ti              4     -0.09964      0.03333     -0.03781 *
 * Ti              5     -0.01932      0.01613     -0.05242 *
 * Ti              6      0.05052     -0.02540     -0.06817 *
 * Ti              7     -0.03144      0.08894      0.00491 *
 * Ti              8      0.06452     -0.03523      0.00437 *
 * Ti              9      0.02043     -0.03889     -0.03952 *
 * Ti             10      0.01839      0.02689      0.00996 *
 * Ti             11      0.08302     -0.04469     -0.03819 *
 * Ti             12     -0.05129      0.02747     -0.00445 *
 * Ti             13     -0.01682      0.02733      0.01053 *
 * Ti             14      0.06405     -0.01947     -0.06495 *
 * Ti             15     -0.00373     -0.01906      0.02782 *
 * Ti             16      0.07801      0.00253      0.01441 *
 * Ti             17      0.05583      0.04858     -0.06674 *
 * Ti             18     -0.10177      0.02421     -0.11774 *
 * Ti             19     -0.09146      0.03490      0.04272 *
 * Ti             20      0.13206     -0.01741      0.01319 *
 * Ti             21      0.03545     -0.02397     -0.01497 *
 * Ti             22     -0.02050      0.03280     -0.01518 *
 * Ti             23      0.03141      0.03139     -0.02071 *
 * Ti             24      0.00233     -0.01055      0.08963 *
 * Ti             25      0.00807     -0.10906     -0.01815 *
 * Ti             26     -0.07320     -0.04688      0.01945 *
 * Ti             27     -0.04888      0.05197      0.03361 *
 * Ti             28      0.04703     -0.06881      0.01003 *
 * Ti             29      0.02063      0.04015      0.07543 *
 * Ti             30     -0.01380      0.05900     -0.04954 *
 * Ti             31     -0.09970     -0.06268     -0.12233 *
 * Ti             32      0.03617     -0.04480      0.04837 *
 * Ti             33     -0.06880     -0.20586     -0.01666 *
 * Ti             34     -0.01958      0.04968     -0.09839 *
 * Ti             35      0.00292      0.07598      0.13439 *
 * Ti             36     -0.11423      0.03330      0.20684 *
 * Ti             37      0.06022     -0.01654     -0.07145 *
 * Ti             38      0.07449      0.09557     -0.01412 *
 * Ti             39      0.03887     -0.03240      0.11521 *
 * Ti             40     -0.04871      0.07155     -0.01473 *
 * Ti             41      0.02592     -0.05009      0.02014 *
 * Ti             42      0.02074      0.04190     -0.13290 *
 * Ti             43     -0.02405     -0.07464      0.03285 *
 * Ti             44      0.08108      0.03622     -0.04831 *
 * Ti             45      0.05639      0.05993      0.05890 *
 * Ti             46     -0.04301     -0.00990     -0.03920 *
 * Ti             47      0.01873      0.05924      0.03292 *
 * Ti             48      0.06254     -0.02505     -0.04097 *
 * Ti             49     -0.04027     -0.02115     -0.01143 *
 * Ti             50      0.05490      0.03355     -0.07370 *
 * Ti             51      0.03631     -0.16156     -0.04452 *
 * Ti             52     -0.02796     -0.04925     -0.04031 *
 * Ti             53     -0.05467     -0.01718      0.03318 *
 * Ti             54      0.00457     -0.06436      0.08052 *
 * Ti             55      0.06828      0.14886      0.02663 *
 * Ti             56      0.13436     -0.01253      0.28159 *
 * Ti             57     -0.06997      0.04419     -0.10712 *
 * Ti             58      0.03993      0.17685      0.07506 *
 * Ti             59      0.10769     -0.11690     -0.09511 *
 * Ti             60     -0.03808      0.00477     -0.05389 *
 * Ti             61     -0.13386      0.07841     -0.03420 *
 * Ti             62     -0.04247      0.00279      0.01123 *
 * Ti             63     -0.07097      0.03178     -0.02056 *
 * Ti             64      0.03011     -0.01054      0.02290 *
 * Ti             65      0.00041      0.02228     -0.06506 *
 * Ti             66     -0.14409     -0.01384     -0.06853 *
 * Ti             67      0.05986      0.00926     -0.01638 *
 * Ti             68     -0.02871      0.01244     -0.14450 *
 * Ti             69     -0.04637     -0.02941      0.03565 *
 * Ti             70      0.01448     -0.01855     -0.11446 *
 * V               1     -0.06962      0.04280      0.01830 *
 * V               2      0.12948      0.17340      0.05133 *
 * V               3      0.29044     -0.23720      0.18506 *
 *                                                          *
 ************************************************************

 ***************** Stress Tensor *****************
 *                                               *
 *          Cartesian components (GPa)           *
 * --------------------------------------------- *
 *             x             y             z     *
 *                                               *
 *  x     -2.043561      0.048284     -0.229277  *
 *  y      0.048284     -0.824409      0.277413  *
 *  z     -0.229277      0.277413     -0.580868  *
 *                                               *
 *  Pressure:    1.1496                          *
 *                                               *
 *************************************************

 Pseudo atomic calculation performed for Al 3s2 3p1

 Converged in 15 iterations to a total energy of -107.1308 eV

 Pseudo atomic calculation performed for Ti 3s2 3p6 3d2 4s2

 Converged in 34 iterations to a total energy of -1587.0236 eV

 Pseudo atomic calculation performed for V 3s2 3p6 3d3 4s2

 Converged in 35 iterations to a total energy of -2065.7874 eV
Charge spilling parameter for spin component 1 = 0.08%

            Orbital Populations       
     Ion    Atom   Orbital             Charge
  -------------------------------------------
     Al     1      S                    0.909
     Al     1      Px                   0.682
     Al     1      Py                   0.665
     Al     1      Pz                   0.674
     Al     2      S                    0.953
     Al     2      Px                   0.701
     Al     2      Py                   0.724
     Al     2      Pz                   0.674
     Al     3      S                    0.957
     Al     3      Px                   0.742
     Al     3      Py                   0.748
     Al     3      Pz                   0.634
     Al     4      S                    0.960
     Al     4      Px                   0.742
     Al     4      Py                   0.723
     Al     4      Pz                   0.639
     Al     5      S                    0.933
     Al     5      Px                   0.638
     Al     5      Py                   0.661
     Al     5      Pz                   0.694
     Al     6      S                    0.966
     Al     6      Px                   0.698
     Al     6      Py                   0.719
     Al     6      Pz                   0.675
     Al     7      S                    0.969
     Al     7      Px                   0.673
     Al     7      Py                   0.719
     Al     7      Pz                   0.692
     Al     8      S                    0.946
     Al     8      Px                   0.727
     Al     8      Py                   0.711
     Al     8      Pz                   0.667
     Ti     1      S                    2.001
     Ti     1      Px                   2.003
     Ti     1      Py                   2.003
     Ti     1      Pz                   2.005
     Ti     1      S                    0.309
     Ti     1      Dzz                  0.484
     Ti     1      Dzy                  0.616
     Ti     1      Dzx                  0.636
     Ti     1      Dxx-yy               0.454
     Ti     1      Dxy                  0.448
     Ti     1      Px                   0.336
     Ti     1      Py                   0.353
     Ti     1      Pz                   0.306
     Ti     2      S                    2.005
     Ti     2      Px                   2.008
     Ti     2      Py                   2.008
     Ti     2      Pz                   2.007
     Ti     2      S                    0.264
     Ti     2      Dzz                  0.593
     Ti     2      Dzy                  0.509
     Ti     2      Dzx                  0.508
     Ti     2      Dxx-yy               0.601
     Ti     2      Dxy                  0.598
     Ti     2      Px                   0.290
     Ti     2      Py                   0.303
     Ti     2      Pz                   0.336
     Ti     3      S                    2.005
     Ti     3      Px                   2.007
     Ti     3      Py                   2.007
     Ti     3      Pz                   2.006
     Ti     3      S                    0.269
     Ti     3      Dzz                  0.598
     Ti     3      Dzy                  0.499
     Ti     3      Dzx                  0.496
     Ti     3      Dxx-yy               0.606
     Ti     3      Dxy                  0.601
     Ti     3      Px                   0.298
     Ti     3      Py                   0.315
     Ti     3      Pz                   0.327
     Ti     4      S                    2.005
     Ti     4      Px                   2.008
     Ti     4      Py                   2.008
     Ti     4      Pz                   2.007
     Ti     4      S                    0.256
     Ti     4      Dzz                  0.598
     Ti     4      Dzy                  0.505
     Ti     4      Dzx                  0.501
     Ti     4      Dxx-yy               0.600
     Ti     4      Dxy                  0.604
     Ti     4      Px                   0.289
     Ti     4      Py                   0.304
     Ti     4      Pz                   0.327
     Ti     5      S                    2.005
     Ti     5      Px                   2.007
     Ti     5      Py                   2.007
     Ti     5      Pz                   2.006
     Ti     5      S                    0.270
     Ti     5      Dzz                  0.599
     Ti     5      Dzy                  0.495
     Ti     5      Dzx                  0.495
     Ti     5      Dxx-yy               0.606
     Ti     5      Dxy                  0.603
     Ti     5      Px                   0.300
     Ti     5      Py                   0.316
     Ti     5      Pz                   0.326
     Ti     6      S                    2.001
     Ti     6      Px                   2.003
     Ti     6      Py                   2.003
     Ti     6      Pz                   2.005
     Ti     6      S                    0.307
     Ti     6      Dzz                  0.479
     Ti     6      Dzy                  0.621
     Ti     6      Dzx                  0.648
     Ti     6      Dxx-yy               0.451
     Ti     6      Dxy                  0.439
     Ti     6      Px                   0.330
     Ti     6      Py                   0.349
     Ti     6      Pz                   0.307
     Ti     7      S                    2.005
     Ti     7      Px                   2.008
     Ti     7      Py                   2.007
     Ti     7      Pz                   2.007
     Ti     7      S                    0.252
     Ti     7      Dzz                  0.580
     Ti     7      Dzy                  0.500
     Ti     7      Dzx                  0.509
     Ti     7      Dxx-yy               0.602
     Ti     7      Dxy                  0.610
     Ti     7      Px                   0.311
     Ti     7      Py                   0.318
     Ti     7      Pz                   0.343
     Ti     8      S                    2.004
     Ti     8      Px                   2.007
     Ti     8      Py                   2.007
     Ti     8      Pz                   2.006
     Ti     8      S                    0.258
     Ti     8      Dzz                  0.590
     Ti     8      Dzy                  0.501
     Ti     8      Dzx                  0.506
     Ti     8      Dxx-yy               0.595
     Ti     8      Dxy                  0.593
     Ti     8      Px                   0.319
     Ti     8      Py                   0.325
     Ti     8      Pz                   0.339
     Ti     9      S                    2.001
     Ti     9      Px                   2.004
     Ti     9      Py                   2.003
     Ti     9      Pz                   2.004
     Ti     9      S                    0.293
     Ti     9      Dzz                  0.497
     Ti     9      Dzy                  0.582
     Ti     9      Dzx                  0.609
     Ti     9      Dxx-yy               0.474
     Ti     9      Dxy                  0.458
     Ti     9      Px                   0.355
     Ti     9      Py                   0.349
     Ti     9      Pz                   0.337
     Ti    10      S                    2.005
     Ti    10      Px                   2.008
     Ti    10      Py                   2.007
     Ti    10      Pz                   2.007
     Ti    10      S                    0.255
     Ti    10      Dzz                  0.581
     Ti    10      Dzy                  0.515
     Ti    10      Dzx                  0.516
     Ti    10      Dxx-yy               0.611
     Ti    10      Dxy                  0.590
     Ti    10      Px                   0.278
     Ti    10      Py                   0.300
     Ti    10      Pz                   0.335
     Ti    11      S                    2.005
     Ti    11      Px                   2.007
     Ti    11      Py                   2.008
     Ti    11      Pz                   2.007
     Ti    11      S                    0.270
     Ti    11      Dzz                  0.600
     Ti    11      Dzy                  0.496
     Ti    11      Dzx                  0.489
     Ti    11      Dxx-yy               0.595
     Ti    11      Dxy                  0.616
     Ti    11      Px                   0.320
     Ti    11      Py                   0.304
     Ti    11      Pz                   0.324
     Ti    12      S                    2.001
     Ti    12      Px                   2.003
     Ti    12      Py                   2.003
     Ti    12      Pz                   2.004
     Ti    12      S                    0.290
     Ti    12      Dzz                  0.503
     Ti    12      Dzy                  0.606
     Ti    12      Dzx                  0.594
     Ti    12      Dxx-yy               0.448
     Ti    12      Dxy                  0.468
     Ti    12      Px                   0.346
     Ti    12      Py                   0.349
     Ti    12      Pz                   0.341
     Ti    13      S                    2.004
     Ti    13      Px                   2.007
     Ti    13      Py                   2.007
     Ti    13      Pz                   2.006
     Ti    13      S                    0.247
     Ti    13      Dzz                  0.573
     Ti    13      Dzy                  0.504
     Ti    13      Dzx                  0.513
     Ti    13      Dxx-yy               0.606
     Ti    13      Dxy                  0.606
     Ti    13      Px                   0.320
     Ti    13      Py                   0.314
     Ti    13      Pz                   0.343
     Ti    14      S                    2.005
     Ti    14      Px                   2.007
     Ti    14      Py                   2.007
     Ti    14      Pz                   2.006
     Ti    14      S                    0.262
     Ti    14      Dzz                  0.593
     Ti    14      Dzy                  0.506
     Ti    14      Dzx                  0.487
     Ti    14      Dxx-yy               0.593
     Ti    14      Dxy                  0.611
     Ti    14      Px                   0.328
     Ti    14      Py                   0.315
     Ti    14      Pz                   0.335
     Ti    15      S                    2.000
     Ti    15      Px                   2.003
     Ti    15      Py                   2.003
     Ti    15      Pz                   2.004
     Ti    15      S                    0.299
     Ti    15      Dzz                  0.495
     Ti    15      Dzy                  0.603
     Ti    15      Dzx                  0.608
     Ti    15      Dxx-yy               0.467
     Ti    15      Dxy                  0.444
     Ti    15      Px                   0.351
     Ti    15      Py                   0.349
     Ti    15      Pz                   0.340
     Ti    16      S                    2.004
     Ti    16      Px                   2.006
     Ti    16      Py                   2.007
     Ti    16      Pz                   2.006
     Ti    16      S                    0.262
     Ti    16      Dzz                  0.609
     Ti    16      Dzy                  0.497
     Ti    16      Dzx                  0.490
     Ti    16      Dxx-yy               0.591
     Ti    16      Dxy                  0.599
     Ti    16      Px                   0.311
     Ti    16      Py                   0.313
     Ti    16      Pz                   0.323
     Ti    17      S                    2.004
     Ti    17      Px                   2.007
     Ti    17      Py                   2.007
     Ti    17      Pz                   2.006
     Ti    17      S                    0.273
     Ti    17      Dzz                  0.610
     Ti    17      Dzy                  0.507
     Ti    17      Dzx                  0.490
     Ti    17      Dxx-yy               0.591
     Ti    17      Dxy                  0.592
     Ti    17      Px                   0.308
     Ti    17      Py                   0.314
     Ti    17      Pz                   0.328
     Ti    18      S                    2.001
     Ti    18      Px                   2.003
     Ti    18      Py                   2.003
     Ti    18      Pz                   2.004
     Ti    18      S                    0.297
     Ti    18      Dzz                  0.492
     Ti    18      Dzy                  0.604
     Ti    18      Dzx                  0.594
     Ti    18      Dxx-yy               0.462
     Ti    18      Dxy                  0.473
     Ti    18      Px                   0.354
     Ti    18      Py                   0.347
     Ti    18      Pz                   0.344
     Ti    19      S                    2.004
     Ti    19      Px                   2.007
     Ti    19      Py                   2.007
     Ti    19      Pz                   2.006
     Ti    19      S                    0.259
     Ti    19      Dzz                  0.579
     Ti    19      Dzy                  0.503
     Ti    19      Dzx                  0.513
     Ti    19      Dxx-yy               0.606
     Ti    19      Dxy                  0.607
     Ti    19      Px                   0.302
     Ti    19      Py                   0.292
     Ti    19      Pz                   0.339
     Ti    20      S                    2.004
     Ti    20      Px                   2.007
     Ti    20      Py                   2.006
     Ti    20      Pz                   2.007
     Ti    20      S                    0.259
     Ti    20      Dzz                  0.584
     Ti    20      Dzy                  0.501
     Ti    20      Dzx                  0.513
     Ti    20      Dxx-yy               0.600
     Ti    20      Dxy                  0.607
     Ti    20      Px                   0.297
     Ti    20      Py                   0.291
     Ti    20      Pz                   0.337
     Ti    21      S                    2.000
     Ti    21      Px                   2.003
     Ti    21      Py                   2.003
     Ti    21      Pz                   2.004
     Ti    21      S                    0.300
     Ti    21      Dzz                  0.511
     Ti    21      Dzy                  0.599
     Ti    21      Dzx                  0.593
     Ti    21      Dxx-yy               0.448
     Ti    21      Dxy                  0.464
     Ti    21      Px                   0.353
     Ti    21      Py                   0.348
     Ti    21      Pz                   0.334
     Ti    22      S                    2.004
     Ti    22      Px                   2.007
     Ti    22      Py                   2.007
     Ti    22      Pz                   2.006
     Ti    22      S                    0.256
     Ti    22      Dzz                  0.589
     Ti    22      Dzy                  0.500
     Ti    22      Dzx                  0.515
     Ti    22      Dxx-yy               0.598
     Ti    22      Dxy                  0.606
     Ti    22      Px                   0.306
     Ti    22      Py                   0.291
     Ti    22      Pz                   0.336
     Ti    23      S                    2.004
     Ti    23      Px                   2.007
     Ti    23      Py                   2.007
     Ti    23      Pz                   2.006
     Ti    23      S                    0.252
     Ti    23      Dzz                  0.568
     Ti    23      Dzy                  0.509
     Ti    23      Dzx                  0.507
     Ti    23      Dxx-yy               0.605
     Ti    23      Dxy                  0.599
     Ti    23      Px                   0.301
     Ti    23      Py                   0.316
     Ti    23      Pz                   0.348
     Ti    24      S                    2.000
     Ti    24      Px                   2.003
     Ti    24      Py                   2.003
     Ti    24      Pz                   2.004
     Ti    24      S                    0.300
     Ti    24      Dzz                  0.488
     Ti    24      Dzy                  0.617
     Ti    24      Dzx                  0.604
     Ti    24      Dxx-yy               0.442
     Ti    24      Dxy                  0.468
     Ti    24      Px                   0.349
     Ti    24      Py                   0.351
     Ti    24      Pz                   0.344
     Ti    25      S                    2.004
     Ti    25      Px                   2.007
     Ti    25      Py                   2.007
     Ti    25      Pz                   2.006
     Ti    25      S                    0.254
     Ti    25      Dzz                  0.584
     Ti    25      Dzy                  0.496
     Ti    25      Dzx                  0.502
     Ti    25      Dxx-yy               0.608
     Ti    25      Dxy                  0.594
     Ti    25      Px                   0.325
     Ti    25      Py                   0.328
     Ti    25      Pz                   0.339
     Ti    26      S                    2.004
     Ti    26      Px                   2.007
     Ti    26      Py                   2.006
     Ti    26      Pz                   2.005
     Ti    26      S                    0.254
     Ti    26      Dzz                  0.612
     Ti    26      Dzy                  0.482
     Ti    26      Dzx                  0.510
     Ti    26      Dxx-yy               0.577
     Ti    26      Dxy                  0.607
     Ti    26      Px                   0.286
     Ti    26      Py                   0.286
     Ti    26      Pz                   0.342
     Ti    27      S                    2.000
     Ti    27      Px                   2.003
     Ti    27      Py                   2.004
     Ti    27      Pz                   2.004
     Ti    27      S                    0.306
     Ti    27      Dzz                  0.492
     Ti    27      Dzy                  0.607
     Ti    27      Dzx                  0.595
     Ti    27      Dxx-yy               0.446
     Ti    27      Dxy                  0.491
     Ti    27      Px                   0.337
     Ti    27      Py                   0.323
     Ti    27      Pz                   0.332
     Ti    28      S                    2.003
     Ti    28      Px                   2.005
     Ti    28      Py                   2.005
     Ti    28      Pz                   2.005
     Ti    28      S                    0.274
     Ti    28      Dzz                  0.575
     Ti    28      Dzy                  0.514
     Ti    28      Dzx                  0.544
     Ti    28      Dxx-yy               0.514
     Ti    28      Dxy                  0.563
     Ti    28      Px                   0.308
     Ti    28      Py                   0.321
     Ti    28      Pz                   0.351
     Ti    29      S                    2.003
     Ti    29      Px                   2.007
     Ti    29      Py                   2.006
     Ti    29      Pz                   2.005
     Ti    29      S                    0.282
     Ti    29      Dzz                  0.562
     Ti    29      Dzy                  0.471
     Ti    29      Dzx                  0.497
     Ti    29      Dxx-yy               0.621
     Ti    29      Dxy                  0.607
     Ti    29      Px                   0.333
     Ti    29      Py                   0.333
     Ti    29      Pz                   0.269
     Ti    30      S                    2.000
     Ti    30      Px                   2.003
     Ti    30      Py                   2.003
     Ti    30      Pz                   2.004
     Ti    30      S                    0.297
     Ti    30      Dzz                  0.498
     Ti    30      Dzy                  0.600
     Ti    30      Dzx                  0.578
     Ti    30      Dxx-yy               0.462
     Ti    30      Dxy                  0.469
     Ti    30      Px                   0.367
     Ti    30      Py                   0.361
     Ti    30      Pz                   0.333
     Ti    31      S                    2.003
     Ti    31      Px                   2.005
     Ti    31      Py                   2.005
     Ti    31      Pz                   2.005
     Ti    31      S                    0.265
     Ti    31      Dzz                  0.553
     Ti    31      Dzy                  0.493
     Ti    31      Dzx                  0.562
     Ti    31      Dxx-yy               0.549
     Ti    31      Dxy                  0.551
     Ti    31      Px                   0.306
     Ti    31      Py                   0.304
     Ti    31      Pz                   0.351
     Ti    32      S                    2.000
     Ti    32      Px                   2.003
     Ti    32      Py                   2.003
     Ti    32      Pz                   2.004
     Ti    32      S                    0.306
     Ti    32      Dzz                  0.513
     Ti    32      Dzy                  0.601
     Ti    32      Dzx                  0.602
     Ti    32      Dxx-yy               0.439
     Ti    32      Dxy                  0.482
     Ti    32      Px                   0.333
     Ti    32      Py                   0.315
     Ti    32      Pz                   0.335
     Ti    33      S                    2.003
     Ti    33      Px                   2.006
     Ti    33      Py                   2.006
     Ti    33      Pz                   2.005
     Ti    33      S                    0.269
     Ti    33      Dzz                  0.590
     Ti    33      Dzy                  0.486
     Ti    33      Dzx                  0.532
     Ti    33      Dxx-yy               0.543
     Ti    33      Dxy                  0.590
     Ti    33      Px                   0.301
     Ti    33      Py                   0.275
     Ti    33      Pz                   0.355
     Ti    34      S                    2.002
     Ti    34      Px                   2.005
     Ti    34      Py                   2.004
     Ti    34      Pz                   2.005
     Ti    34      S                    0.292
     Ti    34      Dzz                  0.524
     Ti    34      Dzy                  0.591
     Ti    34      Dzx                  0.571
     Ti    34      Dxx-yy               0.487
     Ti    34      Dxy                  0.486
     Ti    34      Px                   0.305
     Ti    34      Py                   0.347
     Ti    34      Pz                   0.337
     Ti    35      S                    2.003
     Ti    35      Px                   2.006
     Ti    35      Py                   2.005
     Ti    35      Pz                   2.005
     Ti    35      S                    0.278
     Ti    35      Dzz                  0.600
     Ti    35      Dzy                  0.543
     Ti    35      Dzx                  0.515
     Ti    35      Dxx-yy               0.553
     Ti    35      Dxy                  0.536
     Ti    35      Px                   0.300
     Ti    35      Py                   0.262
     Ti    35      Pz                   0.346
     Ti    36      S                    2.004
     Ti    36      Px                   2.007
     Ti    36      Py                   2.007
     Ti    36      Pz                   2.006
     Ti    36      S                    0.325
     Ti    36      Dzz                  0.574
     Ti    36      Dzy                  0.484
     Ti    36      Dzx                  0.490
     Ti    36      Dxx-yy               0.607
     Ti    36      Dxy                  0.620
     Ti    36      Px                   0.373
     Ti    36      Py                   0.377
     Ti    36      Pz                   0.240
     Ti    37      S                    2.002
     Ti    37      Px                   2.005
     Ti    37      Py                   2.005
     Ti    37      Pz                   2.005
     Ti    37      S                    0.288
     Ti    37      Dzz                  0.510
     Ti    37      Dzy                  0.586
     Ti    37      Dzx                  0.567
     Ti    37      Dxx-yy               0.524
     Ti    37      Dxy                  0.455
     Ti    37      Px                   0.341
     Ti    37      Py                   0.339
     Ti    37      Pz                   0.327
     Ti    38      S                    2.003
     Ti    38      Px                   2.005
     Ti    38      Py                   2.005
     Ti    38      Pz                   2.005
     Ti    38      S                    0.264
     Ti    38      Dzz                  0.558
     Ti    38      Dzy                  0.557
     Ti    38      Dzx                  0.507
     Ti    38      Dxx-yy               0.594
     Ti    38      Dxy                  0.504
     Ti    38      Px                   0.319
     Ti    38      Py                   0.305
     Ti    38      Pz                   0.343
     Ti    39      S                    2.002
     Ti    39      Px                   2.006
     Ti    39      Py                   2.005
     Ti    39      Pz                   2.005
     Ti    39      S                    0.296
     Ti    39      Dzz                  0.541
     Ti    39      Dzy                  0.603
     Ti    39      Dzx                  0.561
     Ti    39      Dxx-yy               0.496
     Ti    39      Dxy                  0.470
     Ti    39      Px                   0.302
     Ti    39      Py                   0.346
     Ti    39      Pz                   0.334
     Ti    40      S                    2.003
     Ti    40      Px                   2.005
     Ti    40      Py                   2.005
     Ti    40      Pz                   2.005
     Ti    40      S                    0.279
     Ti    40      Dzz                  0.579
     Ti    40      Dzy                  0.519
     Ti    40      Dzx                  0.518
     Ti    40      Dxx-yy               0.573
     Ti    40      Dxy                  0.536
     Ti    40      Px                   0.327
     Ti    40      Py                   0.261
     Ti    40      Pz                   0.336
     Ti    41      S                    2.003
     Ti    41      Px                   2.006
     Ti    41      Py                   2.007
     Ti    41      Pz                   2.006
     Ti    41      S                    0.276
     Ti    41      Dzz                  0.584
     Ti    41      Dzy                  0.506
     Ti    41      Dzx                  0.522
     Ti    41      Dxx-yy               0.605
     Ti    41      Dxy                  0.584
     Ti    41      Px                   0.308
     Ti    41      Py                   0.296
     Ti    41      Pz                   0.299
     Ti    42      S                    2.001
     Ti    42      Px                   2.003
     Ti    42      Py                   2.003
     Ti    42      Pz                   2.005
     Ti    42      S                    0.316
     Ti    42      Dzz                  0.483
     Ti    42      Dzy                  0.607
     Ti    42      Dzx                  0.636
     Ti    42      Dxx-yy               0.466
     Ti    42      Dxy                  0.449
     Ti    42      Px                   0.327
     Ti    42      Py                   0.372
     Ti    42      Pz                   0.310
     Ti    43      S                    2.003
     Ti    43      Px                   2.006
     Ti    43      Py                   2.006
     Ti    43      Pz                   2.005
     Ti    43      S                    0.284
     Ti    43      Dzz                  0.579
     Ti    43      Dzy                  0.502
     Ti    43      Dzx                  0.486
     Ti    43      Dxx-yy               0.572
     Ti    43      Dxy                  0.614
     Ti    43      Px                   0.333
     Ti    43      Py                   0.329
     Ti    43      Pz                   0.278
     Ti    44      S                    2.004
     Ti    44      Px                   2.006
     Ti    44      Py                   2.007
     Ti    44      Pz                   2.006
     Ti    44      S                    0.288
     Ti    44      Dzz                  0.579
     Ti    44      Dzy                  0.500
     Ti    44      Dzx                  0.490
     Ti    44      Dxx-yy               0.588
     Ti    44      Dxy                  0.597
     Ti    44      Px                   0.353
     Ti    44      Py                   0.333
     Ti    44      Pz                   0.291
     Ti    45      S                    2.000
     Ti    45      Px                   2.003
     Ti    45      Py                   2.002
     Ti    45      Pz                   2.004
     Ti    45      S                    0.319
     Ti    45      Dzz                  0.475
     Ti    45      Dzy                  0.623
     Ti    45      Dzx                  0.621
     Ti    45      Dxx-yy               0.465
     Ti    45      Dxy                  0.451
     Ti    45      Px                   0.326
     Ti    45      Py                   0.358
     Ti    45      Pz                   0.313
     Ti    46      S                    2.004
     Ti    46      Px                   2.007
     Ti    46      Py                   2.007
     Ti    46      Pz                   2.005
     Ti    46      S                    0.273
     Ti    46      Dzz                  0.623
     Ti    46      Dzy                  0.507
     Ti    46      Dzx                  0.481
     Ti    46      Dxx-yy               0.602
     Ti    46      Dxy                  0.595
     Ti    46      Px                   0.317
     Ti    46      Py                   0.291
     Ti    46      Pz                   0.294
     Ti    47      S                    2.001
     Ti    47      Px                   2.004
     Ti    47      Py                   2.004
     Ti    47      Pz                   2.005
     Ti    47      S                    0.299
     Ti    47      Dzz                  0.514
     Ti    47      Dzy                  0.579
     Ti    47      Dzx                  0.599
     Ti    47      Dxx-yy               0.474
     Ti    47      Dxy                  0.491
     Ti    47      Px                   0.323
     Ti    47      Py                   0.282
     Ti    47      Pz                   0.317
     Ti    48      S                    2.005
     Ti    48      Px                   2.008
     Ti    48      Py                   2.008
     Ti    48      Pz                   2.007
     Ti    48      S                    0.247
     Ti    48      Dzz                  0.575
     Ti    48      Dzy                  0.528
     Ti    48      Dzx                  0.508
     Ti    48      Dxx-yy               0.598
     Ti    48      Dxy                  0.588
     Ti    48      Px                   0.312
     Ti    48      Py                   0.304
     Ti    48      Pz                   0.353
     Ti    49      S                    2.005
     Ti    49      Px                   2.008
     Ti    49      Py                   2.007
     Ti    49      Pz                   2.007
     Ti    49      S                    0.243
     Ti    49      Dzz                  0.579
     Ti    49      Dzy                  0.502
     Ti    49      Dzx                  0.515
     Ti    49      Dxx-yy               0.599
     Ti    49      Dxy                  0.617
     Ti    49      Px                   0.307
     Ti    49      Py                   0.288
     Ti    49      Pz                   0.335
     Ti    50      S                    2.000
     Ti    50      Px                   2.003
     Ti    50      Py                   2.002
     Ti    50      Pz                   2.004
     Ti    50      S                    0.297
     Ti    50      Dzz                  0.502
     Ti    50      Dzy                  0.579
     Ti    50      Dzx                  0.610
     Ti    50      Dxx-yy               0.471
     Ti    50      Dxy                  0.454
     Ti    50      Px                   0.328
     Ti    50      Py                   0.362
     Ti    50      Pz                   0.333
     Ti    51      S                    2.004
     Ti    51      Px                   2.006
     Ti    51      Py                   2.008
     Ti    51      Pz                   2.006
     Ti    51      S                    0.263
     Ti    51      Dzz                  0.583
     Ti    51      Dzy                  0.517
     Ti    51      Dzx                  0.467
     Ti    51      Dxx-yy               0.578
     Ti    51      Dxy                  0.628
     Ti    51      Px                   0.313
     Ti    51      Py                   0.298
     Ti    51      Pz                   0.336
     Ti    52      S                    2.005
     Ti    52      Px                   2.008
     Ti    52      Py                   2.006
     Ti    52      Pz                   2.007
     Ti    52      S                    0.253
     Ti    52      Dzz                  0.582
     Ti    52      Dzy                  0.501
     Ti    52      Dzx                  0.514
     Ti    52      Dxx-yy               0.601
     Ti    52      Dxy                  0.606
     Ti    52      Px                   0.307
     Ti    52      Py                   0.290
     Ti    52      Pz                   0.343
     Ti    53      S                    2.001
     Ti    53      Px                   2.003
     Ti    53      Py                   2.004
     Ti    53      Pz                   2.005
     Ti    53      S                    0.302
     Ti    53      Dzz                  0.510
     Ti    53      Dzy                  0.592
     Ti    53      Dzx                  0.610
     Ti    53      Dxx-yy               0.465
     Ti    53      Dxy                  0.477
     Ti    53      Px                   0.344
     Ti    53      Py                   0.282
     Ti    53      Pz                   0.334
     Ti    54      S                    2.005
     Ti    54      Px                   2.008
     Ti    54      Py                   2.007
     Ti    54      Pz                   2.006
     Ti    54      S                    0.252
     Ti    54      Dzz                  0.584
     Ti    54      Dzy                  0.510
     Ti    54      Dzx                  0.480
     Ti    54      Dxx-yy               0.607
     Ti    54      Dxy                  0.608
     Ti    54      Px                   0.301
     Ti    54      Py                   0.320
     Ti    54      Pz                   0.348
     Ti    55      S                    2.004
     Ti    55      Px                   2.008
     Ti    55      Py                   2.007
     Ti    55      Pz                   2.006
     Ti    55      S                    0.233
     Ti    55      Dzz                  0.594
     Ti    55      Dzy                  0.500
     Ti    55      Dzx                  0.491
     Ti    55      Dxx-yy               0.597
     Ti    55      Dxy                  0.619
     Ti    55      Px                   0.297
     Ti    55      Py                   0.309
     Ti    55      Pz                   0.355
     Ti    56      S                    2.002
     Ti    56      Px                   2.005
     Ti    56      Py                   2.004
     Ti    56      Pz                   2.004
     Ti    56      S                    0.271
     Ti    56      Dzz                  0.559
     Ti    56      Dzy                  0.517
     Ti    56      Dzx                  0.520
     Ti    56      Dxx-yy               0.531
     Ti    56      Dxy                  0.576
     Ti    56      Px                   0.306
     Ti    56      Py                   0.304
     Ti    56      Pz                   0.345
     Ti    57      S                    2.005
     Ti    57      Px                   2.007
     Ti    57      Py                   2.008
     Ti    57      Pz                   2.007
     Ti    57      S                    0.269
     Ti    57      Dzz                  0.570
     Ti    57      Dzy                  0.518
     Ti    57      Dzx                  0.505
     Ti    57      Dxx-yy               0.595
     Ti    57      Dxy                  0.607
     Ti    57      Px                   0.316
     Ti    57      Py                   0.313
     Ti    57      Pz                   0.345
     Ti    58      S                    2.002
     Ti    58      Px                   2.004
     Ti    58      Py                   2.005
     Ti    58      Pz                   2.005
     Ti    58      S                    0.283
     Ti    58      Dzz                  0.524
     Ti    58      Dzy                  0.528
     Ti    58      Dzx                  0.588
     Ti    58      Dxx-yy               0.447
     Ti    58      Dxy                  0.548
     Ti    58      Px                   0.361
     Ti    58      Py                   0.320
     Ti    58      Pz                   0.337
     Ti    59      S                    2.003
     Ti    59      Px                   2.005
     Ti    59      Py                   2.005
     Ti    59      Pz                   2.005
     Ti    59      S                    0.264
     Ti    59      Dzz                  0.576
     Ti    59      Dzy                  0.501
     Ti    59      Dzx                  0.538
     Ti    59      Dxx-yy               0.539
     Ti    59      Dxy                  0.570
     Ti    59      Px                   0.300
     Ti    59      Py                   0.313
     Ti    59      Pz                   0.344
     Ti    60      S                    2.004
     Ti    60      Px                   2.007
     Ti    60      Py                   2.007
     Ti    60      Pz                   2.006
     Ti    60      S                    0.266
     Ti    60      Dzz                  0.595
     Ti    60      Dzy                  0.484
     Ti    60      Dzx                  0.504
     Ti    60      Dxx-yy               0.596
     Ti    60      Dxy                  0.604
     Ti    60      Px                   0.314
     Ti    60      Py                   0.322
     Ti    60      Pz                   0.333
     Ti    61      S                    2.002
     Ti    61      Px                   2.005
     Ti    61      Py                   2.006
     Ti    61      Pz                   2.005
     Ti    61      S                    0.285
     Ti    61      Dzz                  0.547
     Ti    61      Dzy                  0.510
     Ti    61      Dzx                  0.600
     Ti    61      Dxx-yy               0.471
     Ti    61      Dxy                  0.544
     Ti    61      Px                   0.335
     Ti    61      Py                   0.279
     Ti    61      Pz                   0.343
     Ti    62      S                    2.004
     Ti    62      Px                   2.007
     Ti    62      Py                   2.005
     Ti    62      Pz                   2.006
     Ti    62      S                    0.269
     Ti    62      Dzz                  0.607
     Ti    62      Dzy                  0.489
     Ti    62      Dzx                  0.499
     Ti    62      Dxx-yy               0.619
     Ti    62      Dxy                  0.541
     Ti    62      Px                   0.312
     Ti    62      Py                   0.335
     Ti    62      Pz                   0.325
     Ti    63      S                    2.002
     Ti    63      Px                   2.005
     Ti    63      Py                   2.005
     Ti    63      Pz                   2.005
     Ti    63      S                    0.294
     Ti    63      Dzz                  0.513
     Ti    63      Dzy                  0.590
     Ti    63      Dzx                  0.560
     Ti    63      Dxx-yy               0.506
     Ti    63      Dxy                  0.505
     Ti    63      Px                   0.292
     Ti    63      Py                   0.326
     Ti    63      Pz                   0.338
[...]
             Ti 36 -- Ti 37                  0.21        2.79666
             Ti 63 -- Ti 66                  0.28        2.80168
             Ti 9  -- Ti 15                  0.41        2.80206
             Ti 37 -- Ti 39                  0.31        2.80312
             Ti 28 -- Ti 36                  0.14        2.80317
             Ti 1  -- Ti 6                   0.39        2.80343
             Ti 42 -- Ti 45                  0.38        2.80738
              Al 7 -- Ti 43                  0.24        2.80863
             Ti 38 -- Ti 40                  0.14        2.80875
             Ti 14 -- Ti 17                  0.09        2.80940
              Al 4 -- Ti 56                  0.20        2.80989
             Ti 19 -- Ti 22                  0.06        2.81042
             Ti 47 -- Ti 53                  0.31        2.81190
              Al 3 -- Ti 31                  0.24        2.81200
             Ti 29 -- V 1                    0.16        2.81379
             Ti 56 -- V 3                    0.20        2.81439
             Ti 18 -- Ti 24                  0.40        2.81488
             Ti 30 -- Ti 32                  0.32        2.81505
             Ti 2  -- Ti 7                   0.08        2.81652
             Ti 3  -- Ti 8                   0.06        2.81701
             Ti 69 -- V 3                    0.15        2.81766
             Ti 61 -- V 2                    0.32        2.81779
             Ti 10 -- Ti 13                  0.06        2.81800
             Ti 48 -- Ti 51                  0.05        2.81823
             Ti 66 -- Ti 69                  0.30        2.81854
             Ti 27 -- Ti 30                  0.38        2.81862
             Ti 11 -- Ti 17                  0.05        2.81885
             Ti 18 -- Ti 21                  0.35        2.81950
             Ti 36 -- Ti 59                  0.20        2.82103
             Ti 13 -- Ti 16                  0.06        2.82242
             Ti 22 -- Ti 25                  0.06        2.82258
             Ti 4  -- Ti 7                   0.08        2.82260
             Ti 3  -- Ti 5                   0.04        2.82367
              Al 5 -- Ti 45                  0.43        2.82412
             Ti 5  -- Ti 8                   0.05        2.82438
             Ti 50 -- Ti 53                  0.38        2.82484
             Ti 30 -- V 1                    0.20        2.82561
             Ti 2  -- Ti 4                   0.05        2.82600
             Ti 10 -- Ti 16                  0.04        2.82608
             Ti 35 -- Ti 38                  0.23        2.82768
             Ti 54 -- V 2                    0.20        2.82778
             Ti 12 -- Ti 15                  0.37        2.82810
             Ti 35 -- Ti 40                  0.16        2.82866
             Ti 47 -- Ti 50                  0.35        2.82942
              Al 1 -- Ti 1                   0.34        2.83005
              Al 1 -- Ti 6                   0.34        2.83129
             Ti 64 -- Ti 66                  0.16        2.83158
             Ti 27 -- Ti 32                  0.34        2.83183
             Ti 21 -- Ti 24                  0.36        2.83186
             Ti 28 -- Ti 33                  0.17        2.83206
             Ti 19 -- Ti 25                  0.05        2.83227
             Ti 65 -- Ti 66                  0.15        2.83355
              Al 5 -- Ti 42                  0.36        2.83415
             Ti 65 -- Ti 70                  0.11        2.83434
             Ti 9  -- Ti 12                  0.34        2.83543
             Ti 11 -- Ti 14                  0.08        2.83728
             Ti 52 -- Ti 55                  0.04        2.83853
             Ti 68 -- Ti 70                  0.08        2.83890
             Ti 23 -- Ti 26                  0.12        2.83942
              Al 3 -- Ti 40                  0.25        2.83953
             Ti 49 -- Ti 55                  0.05        2.84194
             Ti 48 -- Ti 58                  0.10        2.84347
             Ti 20 -- Ti 26                  0.08        2.84495
             Ti 57 -- Ti 60                  0.10        2.84679
             Ti 63 -- Ti 69                  0.28        2.84752
              Al 3 -- Ti 59                  0.20        2.84816
             Ti 61 -- Ti 62                  0.02        2.85016
              Al 4 -- Ti 36                  0.21        2.85177
             Ti 61 -- V 3                    0.16        2.85211
             Ti 42 -- Ti 44                  0.21        2.85292
             Ti 2  -- Ti 37                  0.16        2.85563
             Ti 60 -- Ti 62                  0.08        2.85814
             Ti 67 -- Ti 69                  0.17        2.85865
             Ti 31 -- Ti 33                  0.17        2.86001
             Ti 62 -- V 2                    0.08        2.86254
             Ti 63 -- Ti 70                  0.07        2.86400
             Ti 51 -- Ti 54                  0.12        2.86899
              Al 7 -- Ti 47                  0.23        2.87004
             Ti 34 -- Ti 39                  0.34        2.87043
             Ti 4  -- Ti 39                  0.12        2.87170
              Al 8 -- Ti 63                  0.24        2.87612
              Al 7 -- Ti 27                  0.24        2.87797
             Ti 32 -- Ti 43                  0.12        2.87939
             Ti 28 -- V 2                    0.16        2.87957
             Ti 18 -- Ti 62                  0.14        2.88469
              Al 4 -- Ti 40                  0.24        2.88488
              Al 3 -- Ti 33                  0.22        2.88526
             Ti 11 -- Ti 37                  0.14        2.88719
             Ti 36 -- Ti 38                  0.17        2.88813
             Ti 44 -- Ti 66                  0.15        2.88867
             Ti 53 -- Ti 67                  0.16        2.89019
             Ti 4  -- Ti 37                  0.14        2.89038
             Ti 7  -- Ti 39                  0.14        2.89070
             Ti 1  -- Ti 64                  0.14        2.89349
             Ti 44 -- Ti 50                  0.15        2.89397
             Ti 51 -- Ti 58                  0.10        2.89397
              Al 2 -- Ti 32                  0.25        2.89459
             Ti 6  -- Ti 67                  0.11        2.89462
             Ti 66 -- Ti 67                  0.13        2.89637
              Al 2 -- V 2                    0.21        2.89696
             Ti 36 -- Ti 56                  0.17        2.89712
             Ti 34 -- Ti 35                  0.12        2.89752
             Ti 31 -- Ti 36                  0.15        2.89759
             Ti 21 -- Ti 65                  0.18        2.89822
              Al 3 -- Ti 36                  0.17        2.89837
             Ti 64 -- Ti 67                  0.09        2.89929
              Al 4 -- Ti 28                  0.18        2.90133
             Ti 41 -- Ti 43                  0.07        2.90169
             Ti 27 -- Ti 29                  0.15        2.90190
             Ti 48 -- V 2                    0.14        2.90235
             Ti 58 -- Ti 61                  0.28        2.90244
             Ti 33 -- V 2                    0.14        2.90401
             Ti 3  -- Ti 37                  0.14        2.90628
              Al 6 -- Ti 66                  0.21        2.90644
              Al 8 -- Ti 69                  0.23        2.90714
             Ti 14 -- Ti 39                  0.12        2.90803
             Ti 5  -- Ti 39                  0.11        2.90808
             Ti 2  -- Ti 34                  0.11        2.90809
             Ti 11 -- Ti 34                  0.14        2.90950
             Ti 46 -- Ti 53                  0.14        2.90951
              Al 6 -- Ti 63                  0.21        2.90962
             Ti 68 -- Ti 69                  0.08        2.91013
             Ti 43 -- Ti 53                  0.11        2.91020
             Ti 5  -- Ti 37                  0.12        2.91106
             Ti 51 -- Ti 61                  0.11        2.91109
             Ti 24 -- Ti 68                  0.12        2.91343
             Ti 33 -- Ti 61                  0.10        2.91416
             Ti 57 -- Ti 58                  0.13        2.91492
              Al 6 -- Ti 47                  0.23        2.91719
             Ti 9  -- Ti 54                  0.15        2.91867
             Ti 7  -- Ti 34                  0.12        2.91911
             Ti 60 -- Ti 61                  0.14        2.92060
             Ti 8  -- Ti 39                  0.12        2.92210
             Ti 9  -- Ti 17                  0.14        2.92215
             Ti 45 -- Ti 46                  0.16        2.92243
             Ti 66 -- Ti 68                  0.18        2.92243
              Al 1 -- Ti 64                  0.18        2.92395
              Al 8 -- Ti 1                   0.20        2.92469
              Al 2 -- Ti 53                  0.24        2.92557
             Ti 35 -- Ti 63                  0.13        2.92604
             Ti 18 -- Ti 20                  0.14        2.92605
             Ti 12 -- Ti 52                  0.11        2.92742
             Ti 29 -- Ti 47                  0.14        2.92983
             Ti 24 -- Ti 70                  0.11        2.93015
             Ti 37 -- Ti 38                  0.10        2.93033
              Al 5 -- Ti 46                  0.21        2.93065
             Ti 18 -- Ti 70                  0.10        2.93114
             Ti 41 -- Ti 42                  0.14        2.93192
             Ti 3  -- Ti 34                  0.11        2.93221
             Ti 56 -- V 2                    0.16        2.93324
             Ti 9  -- Ti 57                  0.10        2.93330
             Ti 24 -- Ti 60                  0.12        2.93369
             Ti 21 -- Ti 68                  0.15        2.93409
              Al 5 -- Ti 17                  0.17        2.93449
             Ti 9  -- Ti 10                  0.12        2.93454
             Ti 63 -- Ti 64                  0.11        2.93473
             Ti 24 -- Ti 62                  0.13        2.93497
             Ti 44 -- Ti 46                  0.11        2.93577
             Ti 15 -- Ti 54                  0.13        2.93603
             Ti 46 -- Ti 47                  0.12        2.93648
              Al 5 -- Al 6                   0.21        2.93676
              Al 8 -- Ti 6                   0.20        2.93685
             Ti 15 -- Ti 16                  0.13        2.93807
             Ti 69 -- Ti 70                  0.05        2.93963
             Ti 59 -- Ti 61                  0.12        2.94151
             Ti 28 -- Ti 58                  0.07        2.94174
             Ti 16 -- Ti 18                  0.13        2.94262
             Ti 17 -- Ti 34                  0.12        2.94273
             Ti 39 -- Ti 40                  0.12        2.94377
             Ti 8  -- Ti 34                  0.10        2.94381
             Ti 4  -- Ti 12                  0.13        2.94455
             Ti 9  -- Ti 16                  0.12        2.94483
             Ti 3  -- Ti 30                  0.15        2.94690
             Ti 21 -- Ti 57                  0.15        2.94732
              Al 2 -- Ti 29                  0.22        2.94735
              Al 8 -- Ti 53                  0.17        2.94739
              Al 8 -- Ti 47                  0.18        2.94839
             Ti 26 -- Ti 27                  0.15        2.94868
             Ti 6  -- Ti 7                   0.10        2.94890
             Ti 40 -- Ti 69                  0.12        2.94895
             Ti 6  -- Ti 25                  0.10        2.94900
             Ti 44 -- Ti 45                  0.13        2.94964
             Ti 17 -- Ti 39                  0.09        2.95080
             Ti 10 -- Ti 42                  0.10        2.95113
             Ti 1  -- Ti 7                   0.10        2.95118
             Ti 52 -- Ti 53                  0.12        2.95198
             Ti 12 -- Ti 57                  0.14        2.95245
             Ti 14 -- Ti 45                  0.14        2.95328
             Ti 58 -- Ti 59                  0.16        2.95345
             Ti 63 -- Ti 65                  0.06        2.95389
              Al 6 -- Ti 50                  0.16        2.95444
             Ti 38 -- Ti 39                  0.12        2.95453
             Ti 22 -- Ti 32                  0.12        2.95466
             Ti 18 -- Ti 56                  0.14        2.95554
              Al 5 -- Ti 11                  0.18        2.95608
             Ti 15 -- Ti 60                  0.13        2.95640
             Ti 43 -- Ti 50                  0.10        2.95644
             Ti 14 -- Ti 42                  0.16        2.95651
             Ti 31 -- Ti 58                  0.07        2.95654
             Ti 46 -- Ti 69                  0.12        2.95656
              Al 5 -- Ti 10                  0.14        2.95692
              Al 7 -- Ti 53                  0.15        2.95703
             Ti 12 -- Ti 13                  0.11        2.95726
             Ti 12 -- Ti 14                  0.10        2.95740
             Ti 8  -- Ti 27                  0.10        2.95782
             Ti 46 -- Ti 63                  0.14        2.95794
             Ti 12 -- Ti 48                  0.11        2.95797
             Ti 11 -- Ti 42                  0.13        2.95799
              Al 1 -- Ti 5                   0.17        2.95821
             Ti 56 -- Ti 63                  0.13        2.95848
             Ti 28 -- Ti 34                  0.12        2.95853
              Al 1 -- Ti 4                   0.15        2.95939
             Ti 15 -- Ti 55                  0.15        2.95960
             Ti 14 -- Ti 37                  0.12        2.95995
             Ti 51 -- Ti 53                  0.12        2.96007
              Al 1 -- Ti 2                   0.14        2.96029
              Al 1 -- Ti 67                  0.15        2.96061
             Ti 47 -- Ti 55                  0.08        2.96073
             Ti 29 -- Ti 58                  0.05        2.96105
             Ti 47 -- Ti 64                  0.09        2.96170
             Ti 31 -- Ti 37                  0.12        2.96182
             Ti 15 -- Ti 17                  0.10        2.96264
             Ti 5  -- Ti 32                  0.14        2.96391
             Ti 9  -- Ti 11                  0.14        2.96452
             Ti 56 -- Ti 59                  0.21        2.96474
             Ti 43 -- Ti 45                  0.20        2.96508
             Ti 30 -- Ti 41                  0.10        2.96554
             Ti 31 -- Ti 61                  0.08        2.96581
             Ti 21 -- Ti 60                  0.15        2.96588
              Al 1 -- Ti 65                  0.16        2.96677
             Ti 58 -- Ti 60                  0.15        2.96705
             Ti 6  -- Ti 68                  0.11        2.96757
             Ti 41 -- Ti 50                  0.13        2.96763
             Ti 19 -- Ti 27                  0.11        2.96849
             Ti 53 -- Ti 55                  0.04        2.96882
             Ti 12 -- Ti 49                  0.13        2.97011
             Ti 8  -- Ti 32                  0.10        2.97111
             Ti 20 -- Ti 21                  0.09        2.97175
             Ti 59 -- Ti 66                  0.13        2.97179
             Ti 1  -- Ti 25                  0.12        2.97181
             Ti 1  -- Ti 2                   0.12        2.97257
             Ti 15 -- Ti 52                  0.08        2.97270
             Ti 38 -- Ti 69                  0.12        2.97291
             Ti 5  -- Ti 30                  0.15        2.97385
             Ti 47 -- Ti 49                  0.09        2.97451
             Ti 19 -- Ti 30                  0.13        2.97510
              Al 5 -- Ti 41                  0.16        2.97515
             Ti 10 -- Ti 12                  0.11        2.97517
             Ti 4  -- Ti 6                   0.12        2.97524
             Ti 44 -- Ti 69                  0.09        2.97527
             Ti 13 -- Ti 42                  0.12        2.97562
             Ti 18 -- Ti 57                  0.12        2.97586
             Ti 11 -- Ti 12                  0.10        2.97706
             Ti 34 -- Ti 40                  0.12        2.97878
             Ti 24 -- Ti 25                  0.14        2.97981
             Ti 13 -- Ti 15                  0.12        2.98017
             Ti 2  -- Ti 12                  0.12        2.98033
             Ti 1  -- Ti 19                  0.12        2.98090
              Al 1 -- Ti 3                   0.15        2.98094
             Ti 16 -- Ti 24                  0.13        2.98096
             Ti 63 -- V 3                    0.16        2.98097
             Ti 2  -- Ti 9                   0.09        2.98112
             Ti 27 -- Ti 41                  0.16        2.98139
             Ti 26 -- Ti 32                  0.14        2.98174
             Ti 18 -- Ti 25                  0.13        2.98273
              Al 1 -- Ti 22                  0.15        2.98306
             Ti 22 -- Ti 30                  0.12        2.98373
             Ti 50 -- Ti 52                  0.14        2.98451
             Ti 14 -- Ti 15                  0.11        2.98527
             Ti 47 -- Ti 54                  0.14        2.98534
             Ti 1  -- Ti 3                   0.12        2.98547
             Ti 25 -- Ti 27                  0.08        2.98602
             Ti 48 -- Ti 50                  0.08        2.98617
             Ti 50 -- Ti 51                  0.09        2.98684
              Al 1 -- Ti 19                  0.14        2.98689
             Ti 3  -- Ti 27                  0.13        2.98689
              Al 1 -- Ti 68                  0.13        2.98790
              Al 4 -- Ti 35                  0.17        2.98795
             Ti 18 -- Ti 19                  0.09        2.98817
             Ti 26 -- Ti 45                  0.10        2.98967
             Ti 13 -- Ti 45                  0.12        2.99000
             Ti 5  -- Ti 6                   0.12        2.99077
             Ti 21 -- Ti 22                  0.11        2.99190
             Ti 40 -- Ti 63                  0.09        2.99248
             Ti 9  -- Ti 55                  0.10        2.99264
             Ti 18 -- Ti 26                  0.13        2.99288
             Ti 49 -- Ti 50                  0.11        2.99298
             Ti 23 -- Ti 42                  0.11        2.99351
              Al 6 -- Ti 42                  0.19        2.99360
             Ti 32 -- V 1                    0.16        2.99401
              Al 7 -- Ti 32                  0.17        2.99515
             Ti 9  -- Ti 48                  0.12        2.99561
             Ti 50 -- Ti 64                  0.12        2.99707
             Ti 6  -- Ti 55                  0.12        2.99904
             Ti 1  -- Ti 65                  0.10        2.99915
             Ti 44 -- Ti 53                  0.12        2.99975
             Ti 9  -- Ti 49                  0.07        2.99978
             Ti 22 -- Ti 24                  0.10        2.99986
             Ti 18 -- Ti 65                  0.11        2.99996
======================================================================

 
 A BibTeX formatted list of references used in this run has been written to 
 sqs_hex_sc3x3x3_Ti70Al8V3_frame0_11.bib
 
Initialisation time =     24.01 s
Calculation time    =   6427.00 s
Finalisation time   =      0.57 s
Total time          =   6451.58 s
Peak Memory Use     = 2614256 kB
 
Overall parallel efficiency rating: Mediocre (57%)
 
Data was distributed by:-
G-vector (16-way); efficiency rating: Mediocre (58%)
k-point (15-way); efficiency rating: Excellent (96%)
