 +-------------------------------------------------+
 |                                                 |
 |      CCC   AA    SSS  TTTTT  EEEEE  PPPP        |
 |     C     A  A  S       T    E      P   P       |
 |     C     AAAA   SS     T    EEE    PPPP        |
 |     C     A  A     S    T    E      P           |
 |      CCC  A  A  SSS     T    EEEEE  P           |
 |                                                 |
 +-------------------------------------------------+
 |                                                 |
 | Welcome to Academic Release CASTEP version 24.1 |
 | Ab Initio Total Energy Program                  |
 |                                                 |
 | Authors:                                        |
 | M. Segall, M. Probert, C. Pickard, P. Hasnip,   |
 | S. Clark, K. Refson, J. R. Yates,               |
 | A. Bartok-Partay, M. Payne                      |
 |                                                 |
 | Contributors:                                   |
 | P. Lindan, P. Haynes, J. White, V. Milman,      |
 | N. Govind, M. Gibson, P. Tulip, V. Cocula,      |
 | B. Montanari, D. Quigley, M. Glover,            |
 | L. Bernasconi, A. Perlov, M. Plummer,           |
 | E. McNellis, J. Meyer, J. Gale, D. Jochym       |
 | J. Aarons, B. Walker, R. Gillen, D. Jones       |
 | T. Green, I. J. Bush, C. J. Armstrong,          |
 | E. J. Higgins, E. L. Brown, M. S. McFly,        |
 | J. Wilkins, B-C. Shih, P. J. P. Byrne,          |
 | R. J. Maurer, J. C. Womack, J. Dziedzic,        |
 | L. LeBlanc, T. K. Stenczel, J. Kermode,         |
 | S. Sturniolo, B. Shi, B. Durham, M. Evans,      |
 | M. J. Smith, A. Tamerus, Z. Hawkhead,           |
 | V. Ravindran, T. Hollins, S. A. Joyce,          |
 | R. T. Strong, A. M. Reilly                      |
 |                                                 |
 | Copyright (c) 2000 - 2023                       |
 |                                                 |
 |     Distributed under license from Cambridge    |
 |     Enterprise for academic use only.           |
 |                                                 |
 | Please cite                                     |
 |                                                 |
 |     "First principles methods using CASTEP"     |
 |                                                 |
 |         Zeitschrift fuer Kristallographie       |
 |           220(5-6) pp. 567-570 (2005)           |
 |                                                 |
 | S. J. Clark, M. D. Segall, C. J. Pickard,       |
 | P. J. Hasnip, M. J. Probert, K. Refson,         |
 | M. C. Payne                                     |
 |                                                 |
 |       in all publications arising from          |
 |              your use of CASTEP                 |
 |                                                 |
 +-------------------------------------------------+
 |                                                 |
 |              http://www.castep.org              |
 |                                                 |
 +-------------------------------------------------+



 Compiled for linux_x86_64_gfortran10 on Tue, 02 May 2023 15:31:46 +0100
 from code version db08e394c+  default  Mon May 1 16:40:39 2023 +0100
 Compiler: GNU Fortran 10.2.0; Optimisation: fast
 Comms   : Open MPI v4.0.5
 MATHLIBS: openblas (LAPACK version 3.9.0)
 FFT Lib : fftw3 version fftw-3.3.8-sse2-avx-avx2-avx2_128
 Fundamental constants values: CODATA 2018

 Run started: Wed, 07 Feb 2024 19:17:03 +0000
 Info: number of up-spin electrons is not equal to the
       number of down-spins but spin_polarized=false
     - consider setting spin_polarized=true.

 Atomic calculation performed for Al: 1s2 2s2 2p6 3s2 3p1

 Converged in 54 iterations to an ae energy of -6603.783 eV

   ============================================================                
   | Pseudopotential Report - Date of generation  7-02-2024   |                
   ------------------------------------------------------------                
   | Element: Al Ionic charge:  3.00 Level of theory: PBE     |                
   | Atomic Solver: Koelling-Harmon                           |                
   |                                                          |                
   |               Reference Electronic Structure             |                
   |         Orbital         Occupation         Energy        |                
   |            3s              2.000           -0.285        |                
   |            3p              1.000           -0.100        |                
   |                                                          |                
   |                 Pseudopotential Definition               |                
   |        Beta     l      e      Rc     scheme   norm       |                
   |          1      0   -0.285   2.192     qc      0         |                
   |          2      0    0.250   2.192     qc      0         |                
   |          3      1   -0.100   2.192     qc      0         |                
   |          4      1    0.250   2.192     qc      0         |                
   |          5      2    0.000   2.000     qc      0         |                
   |          6      2    0.250   2.000     qc      0         |                
   |         loc     3    0.000   2.192     pn      0         |                
   |                                                          |                
   | Augmentation charge Rinner = 1.398                       |                
   | Partial core correction Rc = 1.398                       |                
   ------------------------------------------------------------                
   | "3|2.2|2.2|1.4|4|5|5|30:31:32U2U2"                       |                
   ------------------------------------------------------------                
   |      Author: Chris J. Pickard, Cambridge University      |                
   ============================================================                

 Atomic calculation performed for Ti: 1s2 2s2 2p6 3s2 3p6 3d2 4s2

 Converged in 79 iterations to an ae energy of -23226.658 eV

   ============================================================                
   | Pseudopotential Report - Date of generation  7-02-2024   |                
   ------------------------------------------------------------                
   | Element: Ti Ionic charge: 12.00 Level of theory: PBE     |                
   | Atomic Solver: Koelling-Harmon                           |                
   |                                                          |                
   |               Reference Electronic Structure             |                
   |         Orbital         Occupation         Energy        |                
   |            3s              2.000           -2.302        |                
   |            3p              6.000           -1.428        |                
   |            4s              2.000           -0.164        |                
   |            3d              2.000           -0.157        |                
   |                                                          |                
   |                 Pseudopotential Definition               |                
   |        Beta     l      e      Rc     scheme   norm       |                
   |          1      0   -2.302   1.793     qc      0         |                
   |          2      0   -0.164   1.793     qc      0         |                
   |          3      0    0.250   1.793     qc      0         |                
   |          4      1   -1.428   1.793     qc      0         |                
   |          5      1    0.250   1.793     qc      0         |                
   |          6      2   -0.157   1.793     qc      0         |                
   |          7      2    0.250   1.793     qc      0         |                
   |         loc     3    0.000   1.793     pn      0         |                
   |                                                          |                
   | Augmentation charge Rinner = 1.263                       |                
   | Partial core correction Rc = 1.263                       |                
   ------------------------------------------------------------                
   | "3|1.8|9|10|11|30U:40:31:32(qc=5.5)"                     |                
   ------------------------------------------------------------                
   |      Author: Chris J. Pickard, Cambridge University      |                
   ============================================================                

 Atomic calculation performed for V: 1s2 2s2 2p6 3s2 3p6 3d3 4s2

 Converged in 81 iterations to an ae energy of -25823.733 eV

   ============================================================                
   | Pseudopotential Report - Date of generation  7-02-2024   |                
   ------------------------------------------------------------                
   | Element: V Ionic charge: 13.00 Level of theory: PBE      |                
   | Atomic Solver: Koelling-Harmon                           |                
   |                                                          |                
   |               Reference Electronic Structure             |                
   |         Orbital         Occupation         Energy        |                
   |            3s              2.000           -2.581        |                
   |            3p              6.000           -1.618        |                
   |            3d              3.000           -0.190        |                
   |            4s              2.000           -0.173        |                
   |                                                          |                
   |                 Pseudopotential Definition               |                
   |        Beta     l      e      Rc     scheme   norm       |                
   |          1      0   -2.581   1.803     qc      0         |                
   |          2      0   -0.173   1.803     qc      0         |                
   |          3      0    0.250   1.803     qc      0         |                
   |          4      1   -1.618   1.803     qc      0         |                
   |          5      1    0.250   1.803     qc      0         |                
   |          6      2   -0.190   1.803     qc      0         |                
   |          7      2    0.250   1.803     qc      0         |                
   |         loc     3    0.000   1.803     pn      0         |                
   |                                                          |                
   | Augmentation charge Rinner = 0.600                       |                
   | Partial core correction Rc = 0.600                       |                
   ------------------------------------------------------------                
   | "3|1.8|1.8|0.6|12|14|16|30U:40:31:32(qc=7)"              |                
   ------------------------------------------------------------                
   |      Author: Chris J. Pickard, Cambridge University      |                
   ============================================================                

 Pseudo atomic calculation performed for Al 3s2 3p1

 Converged in 15 iterations to a total energy of -107.1308 eV

 Pseudo atomic calculation performed for Ti 3s2 3p6 3d2 4s2

 Converged in 34 iterations to a total energy of -1587.0236 eV

 Pseudo atomic calculation performed for V 3s2 3p6 3d3 4s2

 Converged in 35 iterations to a total energy of -2065.7874 eV
 Calculation parallelised over 240 processes.
 Data is distributed by G-vector(16-way) and k-point(15-way)

 ************************************ Title ************************************
 

 ***************************** General Parameters ******************************
  
 output verbosity                               : normal  (1)
 write checkpoint data to                       : sqs_hex_sc3x3x3_Ti70Al8V3_frame0_14.check
 type of calculation                            : single point energy
 stress calculation                             : on
 density difference calculation                 : off
 electron localisation func (ELF) calculation   : off
 Hirshfeld analysis                             : off
 polarisation (Berry phase) analysis            : off
 molecular orbital projected DOS                : off
 deltaSCF calculation                           : off
 unlimited duration calculation
 timing information                             : on
 memory usage estimate                          : on
 write extra output files                       : on
 write final potential to formatted file        : off
 write final density to formatted file          : off
 write BibTeX reference list                    : on
 write OTFG pseudopotential files               : on
 write electrostatic potential file             : on
 write bands file                               : on
 checkpoint writing                             : off
  
 output         length unit                     : A
 output           mass unit                     : amu
 output           time unit                     : ps
 output         charge unit                     : e
 output           spin unit                     : hbar/2
 output         energy unit                     : eV
 output          force unit                     : eV/A
 output       velocity unit                     : A/ps
 output       pressure unit                     : GPa
 output     inv_length unit                     : 1/A
 output      frequency unit                     : cm-1
 output force constant unit                     : eV/A**2
 output         volume unit                     : A**3
 output   IR intensity unit                     : (D/A)**2/amu
 output         dipole unit                     : D
 output         efield unit                     : eV/A/e
 output        entropy unit                     : J/mol/K
 output    efield chi2 unit                     : pm/V
  
 wavefunctions paging                           : none
 random number generator seed                   :  191703129
 data distribution                              : k-point only
 optimization strategy                          : maximize speed(+++)

 *********************** Exchange-Correlation Parameters ***********************
  
 using functional                               : Perdew Burke Ernzerhof
 relativistic treatment                         : Koelling-Harmon
 DFT+D: Semi-empirical dispersion correction    : off

 ************************* Pseudopotential Parameters **************************
  
 pseudopotential representation                 : reciprocal space
 <beta|phi> representation                      : reciprocal space
 spin-orbit coupling                            : off

 **************************** Basis Set Parameters *****************************
  
 plane wave basis set cut-off                   :   800.0000   eV
 size of standard grid                          :     2.0000
 size of   fine   gmax                          :    28.9810   1/A
 largest prime factor in FFT                    :          5
 finite basis set correction                    : automatic
 number of sample energies                      :          3
           sample  spacing                      :     5.0000   eV

 **************************** Electronic Parameters ****************************
  
 number of  electrons                           :  903.0    
 net charge of system                           :  0.000    
 treating system as non-spin-polarized
 number of bands                                :        487

 ********************* Electronic Minimization Parameters **********************
  
 Method: Treating system as metallic with density mixing treatment of electrons,
         and number of  SD  steps               :          1
         and number of  CG  steps               :          4
  
 total energy / atom convergence tol.           : 0.1000E-05   eV
 eigen-energy convergence tolerance             : 0.1663E-06   eV
 max force / atom convergence tol.              : ignored
 convergence tolerance window                   :          3   cycles
 max. number of SCF cycles                      :         30
 number of fixed-spin iterations                :         10
 smearing scheme                                : Gaussian
 smearing width                                 : 0.5000E-01   eV
 Fermi energy convergence tolerance             : 0.2721E-13   eV
 periodic dipole correction                     : NONE

 ************************** Density Mixing Parameters **************************
  
 density-mixing scheme                          : Pulay
 max. length of mixing history                  :         20
 charge density mixing amplitude                : 0.8000    
 cut-off energy for mixing                      :  800.0       eV
 charge density mixing g-vector                 :  1.500       1/A

 *********************** Population Analysis Parameters ************************
  
 Population analysis with cutoff                :  3.000       A
 Population analysis output                     : summary and pdos components

 ******************************* Developer Code ********************************
  
 PARALLEL: kpoint=15 : ENDPARALLEL
 no_improve_wvfn

 *******************************************************************************
  

                           -------------------------------
                                      Unit Cell
                           -------------------------------
        Real Lattice(A)                      Reciprocal Lattice(1/A)
     6.9718820   -11.8388760     0.0000590        0.450608982  -0.265362409   0.000002209
     6.9718820    11.8388760    -0.0000200        0.450608982   0.265362409   0.000000453
    -0.0000250     0.0000280     8.4646560       -0.000002076   0.000002477   0.742284779

                       Lattice parameters(A)       Cell Angles
                    a =     13.739218          alpha =   90.000006
                    b =     13.739218          beta  =   90.000003
                    c =      8.464656          gamma =  119.012568

                       Current cell volume =          1397.332656       A**3
                                   density =             2.661762   AMU/A**3
                                           =             4.419960     g/cm^3

                           -------------------------------
                                     Cell Contents
                           -------------------------------
                         Total number of ions in cell =   81
                      Total number of species in cell =    3
                        Max number of any one species =   70

            xxxxxxxxxxxxxxxxxxxxxxxxxxxxxxxxxxxxxxxxxxxxxxxxxxxxxxxxxxxx
            x  Element    Atom        Fractional coordinates of atoms  x
            x            Number           u          v          w      x
            x----------------------------------------------------------x
            x  Al           1        -0.000247  -0.001326   0.330733   x 
            x  Al           2         0.561171   0.117172   0.794242   x 
            x  Al           3         0.552346   0.444073   0.652557   x 
            x  Al           4         0.560953   0.442024   0.973541   x 
            x  Al           5         0.336101   0.664673  -0.004848   x 
            x  Al           6         0.557634   0.777502   0.155799   x 
            x  Al           7         0.450688   0.900541   0.839547   x 
            x  Al           8         0.779252   0.889231   0.832163   x 
            x  Ti           1        -0.001779  -0.002587  -0.003597   x 
            x  Ti           2         0.108549   0.219909   0.163498   x 
            x  Ti           3         0.222498   0.110493   0.162162   x 
            x  Ti           4         0.106828   0.220019   0.497345   x 
            x  Ti           5         0.221687   0.110436   0.495743   x 
            x  Ti           6        -0.001662  -0.002396   0.665211   x 
            x  Ti           7         0.108640   0.218419   0.830768   x 
            x  Ti           8         0.224869   0.111682   0.829381   x 
            x  Ti           9         0.003632   0.336991  -0.002433   x 
            x  Ti          10         0.115427   0.556488   0.162964   x 
            x  Ti          11         0.225239   0.444777   0.164822   x 
            x  Ti          12         0.002551   0.334690   0.332524   x 
            x  Ti          13         0.112660   0.557161   0.495839   x 
            x  Ti          14         0.223460   0.446833   0.499970   x 
            x  Ti          15        -0.000455   0.335350   0.666586   x 
            x  Ti          16         0.109243   0.556232   0.829239   x 
            x  Ti          17         0.221769   0.444388   0.831850   x 
            x  Ti          18         0.000365   0.665542  -0.004249   x 
            x  Ti          19         0.112536   0.889715   0.162442   x 
            x  Ti          20         0.217888   0.775277   0.164047   x 
            x  Ti          21        -0.005464   0.664090   0.328735   x 
            x  Ti          22         0.113142   0.888943   0.494455   x 
            x  Ti          23         0.221125   0.776339   0.492681   x 
            x  Ti          24        -0.004545   0.664505   0.663284   x 
            x  Ti          25         0.109696   0.888687   0.827867   x 
            x  Ti          26         0.224622   0.779543   0.828082   x 
            x  Ti          27         0.333992   0.000309  -0.006320   x 
            x  Ti          28         0.451283   0.234852   0.159903   x 
            x  Ti          29         0.556528   0.110575   0.142310   x 
            x  Ti          30         0.336418   0.005066   0.326601   x 
            x  Ti          31         0.452068   0.236456   0.487518   x 
            x  Ti          32         0.334858   0.002202   0.659143   x 
            x  Ti          33         0.451035   0.232520   0.825347   x 
            x  Ti          34         0.325672   0.330257  -0.001417   x 
            x  Ti          35         0.451406   0.548786   0.155394   x 
            x  Ti          36         0.558241   0.447419   0.310247   x 
            x  Ti          37         0.320581   0.326511   0.328374   x 
            x  Ti          38         0.449629   0.546337   0.489433   x 
            x  Ti          39         0.321492   0.327665   0.659526   x 
            x  Ti          40         0.449650   0.548696   0.821232   x 
            x  Ti          41         0.439522   0.885989   0.165315   x 
            x  Ti          42         0.335897   0.666633   0.329957   x 
            x  Ti          43         0.446670   0.896220   0.507807   x 
            x  Ti          44         0.552530   0.775180   0.482160   x 
            x  Ti          45         0.337370   0.669584   0.661591   x 
            x  Ti          46         0.554897   0.777830   0.828963   x 
            x  Ti          47         0.667139  -0.002828  -0.004772   x 
            x  Ti          48         0.780331   0.221598   0.168313   x 
            x  Ti          49         0.888455   0.112281   0.165778   x 
            x  Ti          50         0.662668  -0.004470   0.329432   x 
            x  Ti          51         0.770173   0.217601   0.500950   x 
            x  Ti          52         0.886936   0.114703   0.494753   x 
            x  Ti          53         0.667112  -0.005315   0.663059   x 
            x  Ti          54         0.782897   0.225112   0.839423   x 
            x  Ti          55         0.889225   0.112704   0.830038   x 
            x  Ti          56         0.769794   0.544721   0.135186   x 
            x  Ti          57         0.892755   0.443330   0.164231   x 
            x  Ti          58         0.671932   0.327119   0.321028   x 
            x  Ti          59         0.762578   0.547571   0.485135   x 
            x  Ti          60         0.888702   0.444169   0.500467   x 
            x  Ti          61         0.669707   0.333575   0.663686   x 
            x  Ti          62         0.877221   0.448702   0.837333   x 
            x  Ti          63         0.671184   0.674149  -0.005626   x 
            x  Ti          64         0.782764   0.892879   0.161762   x 
            x  Ti          65         0.888461   0.774609   0.169204   x 
            x  Ti          66         0.675867   0.682590   0.325152   x 
            x  Ti          67         0.781058   0.892616   0.504270   x 
            x  Ti          68         0.889891   0.775228   0.499151   x 
            x  Ti          69         0.670677   0.675987   0.657990   x 
            x  Ti          70         0.885427   0.769594   0.834433   x 
            x  V            1         0.552039   0.117615   0.474329   x 
            x  V            2         0.663753   0.316479  -0.004301   x 
            x  V            3         0.761099   0.553177   0.803565   x 
            xxxxxxxxxxxxxxxxxxxxxxxxxxxxxxxxxxxxxxxxxxxxxxxxxxxxxxxxxxxx


                         No user defined ionic velocities

                           -------------------------------
                                   Details of Species
                           -------------------------------

                               Mass of species in AMU
                                    Al   26.9815400
                                    Ti   47.8670000
                                    V   50.9415000

                          Electric Quadrupole Moment (Barn)
                                    Al    0.1466000 Isotope 27
                                    Ti    0.3020000 Isotope 47
                                    V   -0.0520000 Isotope 51

                          Files used for pseudopotentials:
                                    Al 3|2.2|2.2|1.4|4|5|5|30:31:32U2U2
                                    Ti 3|1.8|9|10|11|30U:40:31:32(qc=5.5)
                                    V 3|1.8|1.8|0.6|12|14|16|30U:40:31:32(qc=7)

                           -------------------------------
                              k-Points For BZ Sampling
                           -------------------------------
                       MP grid size for SCF calculation is  5  5  6
                            with an offset of   0.000  0.000  0.000
                       Number of kpoints used =            75

                           -------------------------------
                               Symmetry and Constraints
                           -------------------------------

                      Maximum deviation from symmetry =  0.00000         ANG

                      Number of symmetry operations   =           1
                      Number of ionic constraints     =           3
                      Point group of crystal =     1: C1, 1, 1
                      Space group of crystal =     1: P1, P 1

             Set iprint > 1 for details on symmetry rotations/translations

                         Centre of mass is constrained
             Set iprint > 1 for details of linear ionic constraints

                         Number of cell constraints= 0
                         Cell constraints are:  1 2 3 4 5 6

                         External pressure/stress (GPa)
                          0.00000   0.00000   0.00000
                                    0.00000   0.00000
                                              0.00000
 
+---------------- MEMORY AND SCRATCH DISK ESTIMATES PER PROCESS --------------+
|                                                     Memory          Disk    |
| Baseline code, static data and system overhead      591.0 MB         0.0 MB |
| BLAS internal memory storage                          0.0 MB         0.0 MB |
| Model and support data                              932.1 MB         0.0 MB |
| Electronic energy minimisation requirements         448.4 MB         0.0 MB |
| Force calculation requirements                       15.9 MB         0.0 MB |
| Stress calculation requirements                      17.2 MB         0.0 MB |
|                                               ----------------------------- |
| Approx. total storage required per process         1971.5 MB         0.0 MB |
|                                                                             |
| Requirements will fluctuate during execution and may exceed these estimates |
+-----------------------------------------------------------------------------+
Calculating finite basis set correction with  3 cut-off energies.
Calculating total energy with cut-off of  790.000 eV.
------------------------------------------------------------------------ <-- SCF
SCF loop      Energy           Fermi           Energy gain       Timer   <-- SCF
                               energy          per atom          (sec)   <-- SCF
------------------------------------------------------------------------ <-- SCF
Initial  -1.06773539E+005  0.00000000E+000                        34.66  <-- SCF
      1  -1.15682721E+005  1.16335411E+001   1.09989895E+002     227.66  <-- SCF
      2  -1.18524542E+005  9.00622678E+000   3.50842159E+001     387.31  <-- SCF
      3  -1.18685979E+005  8.77386537E+000   1.99304938E+000     551.42  <-- SCF
      4  -1.18708364E+005  7.93682504E+000   2.76352381E-001     745.80  <-- SCF
      5  -1.18695123E+005  8.16401256E+000  -1.63470625E-001     946.92  <-- SCF
      6  -1.18687486E+005  8.32899441E+000  -9.42817220E-002    1137.07  <-- SCF
      7  -1.18682680E+005  8.34574056E+000  -5.93263104E-002    1337.60  <-- SCF
      8  -1.18684054E+005  8.29276904E+000   1.69557491E-002    1529.01  <-- SCF
      9  -1.18682605E+005  8.29276887E+000  -1.78819789E-002    1709.08  <-- SCF
     10  -1.18682377E+005  8.27621806E+000  -2.82604385E-003    1896.46  <-- SCF
     11  -1.18682477E+005  8.27024020E+000   1.23448639E-003    2084.68  <-- SCF
     12  -1.18682374E+005  8.26815658E+000  -1.26436920E-003    2261.22  <-- SCF
     13  -1.18682355E+005  8.26832001E+000  -2.33850647E-004    2444.86  <-- SCF
     14  -1.18682357E+005  8.26881958E+000   1.79263433E-005    2627.64  <-- SCF
     15  -1.18682354E+005  8.26877143E+000  -3.77384123E-005    2788.34  <-- SCF
     16  -1.18682354E+005  8.26875678E+000   5.59295707E-006    2947.84  <-- SCF
     17  -1.18682354E+005  8.26888932E+000  -4.95968043E-006    3091.62  <-- SCF
     18  -1.18682354E+005  8.26888926E+000  -3.71595820E-009    3199.50  <-- SCF
     19  -1.18682354E+005  8.26888178E+000  -1.07375671E-007    3306.95  <-- SCF
------------------------------------------------------------------------ <-- SCF
 
Final energy, E             =  -118682.2406184     eV
Final free energy (E-TS)    =  -118682.3535979     eV
(energies not corrected for finite basis set)
 
NB est. 0K energy (E-0.5TS)      =  -118682.2971082     eV
 
Calculating total energy with cut-off of  795.000 eV.
------------------------------------------------------------------------ <-- SCF
SCF loop      Energy           Fermi           Energy gain       Timer   <-- SCF
                               energy          per atom          (sec)   <-- SCF
------------------------------------------------------------------------ <-- SCF
Initial  -1.18682241E+005  0.00000000E+000                      3337.67  <-- SCF
      1  -1.18682357E+005  8.26896378E+000   1.43362043E-003    3483.47  <-- SCF
      2  -1.18682357E+005  8.26896246E+000   4.05440860E-006    3633.91  <-- SCF
      3  -1.18682414E+005  8.26786485E+000   7.04944900E-004    3815.88  <-- SCF
      4  -1.18682356E+005  8.26902469E+000  -7.21758828E-004    3993.03  <-- SCF
      5  -1.18682355E+005  8.26896464E+000  -1.00877116E-005    4158.91  <-- SCF
      6  -1.18682355E+005  8.26888544E+000   3.52366485E-006    4308.57  <-- SCF
      7  -1.18682355E+005  8.26892973E+000  -6.80764948E-007    4424.85  <-- SCF
      8  -1.18682355E+005  8.26885267E+000  -4.02244989E-007    4531.92  <-- SCF
      9  -1.18682355E+005  8.26884647E+000   9.80472773E-010    4636.97  <-- SCF
------------------------------------------------------------------------ <-- SCF
 
Final energy, E             =  -118682.2420565     eV
Final free energy (E-TS)    =  -118682.3550229     eV
(energies not corrected for finite basis set)
 
NB est. 0K energy (E-0.5TS)      =  -118682.2985397     eV
 
Calculating total energy with cut-off of  800.000 eV.
------------------------------------------------------------------------ <-- SCF
SCF loop      Energy           Fermi           Energy gain       Timer   <-- SCF
                               energy          per atom          (sec)   <-- SCF
------------------------------------------------------------------------ <-- SCF
Initial  -1.18682242E+005  0.00000000E+000                      4667.47  <-- SCF
      1  -1.18682367E+005  8.26842651E+000   1.54140168E-003    4836.99  <-- SCF
      2  -1.18682367E+005  8.26842274E+000   4.00283555E-006    4985.36  <-- SCF
      3  -1.18682617E+005  8.27010945E+000   3.09227753E-003    5171.42  <-- SCF
      4  -1.18682347E+005  8.26919633E+000  -3.34399818E-003    5350.71  <-- SCF
      5  -1.18682357E+005  8.26895840E+000   1.23094249E-004    5523.83  <-- SCF
      6  -1.18682357E+005  8.26901033E+000   7.27374894E-006    5688.97  <-- SCF
      7  -1.18682357E+005  8.26872954E+000  -7.13264366E-006    5840.44  <-- SCF
      8  -1.18682356E+005  8.26884587E+000  -1.23939489E-006    5953.56  <-- SCF
      9  -1.18682356E+005  8.26882484E+000  -3.83145172E-007    6062.35  <-- SCF
     10  -1.18682356E+005  8.26885952E+000  -3.00482059E-007    6169.01  <-- SCF
------------------------------------------------------------------------ <-- SCF
 
Final energy, E             =  -118682.2434041     eV
Final free energy (E-TS)    =  -118682.3564029     eV
(energies not corrected for finite basis set)
 
NB est. 0K energy (E-0.5TS)      =  -118682.2999035     eV
 
 For future reference: finite basis dEtot/dlog(Ecut) =      -0.223300eV
 Total energy corrected for finite basis set = -118682.356399 eV

 ************************** Forces **************************
 *                                                          *
 *               Cartesian components (eV/A)                *
 * -------------------------------------------------------- *
 *                         x            y            z      *
 *                                                          *
 * Al              1      0.01473      0.04023      0.01157 *
 * Al              2     -0.16786     -0.12350      0.08517 *
 * Al              3      0.09335      0.00613     -0.02145 *
 * Al              4      0.03540      0.03233      0.00274 *
 * Al              5     -0.06638      0.00982     -0.04812 *
 * Al              6     -0.02885     -0.03716     -0.01426 *
 * Al              7     -0.09566     -0.05820      0.11457 *
 * Al              8      0.01244      0.12057      0.03901 *
 * Ti              1      0.05042     -0.06413      0.03064 *
 * Ti              2     -0.07465      0.04548      0.02387 *
 * Ti              3      0.08280     -0.05022     -0.01895 *
 * Ti              4     -0.04835      0.01220     -0.02408 *
 * Ti              5      0.01047      0.02028     -0.02959 *
 * Ti              6      0.05123      0.00451     -0.04460 *
 * Ti              7     -0.05765      0.07338     -0.00237 *
 * Ti              8      0.09292     -0.00005     -0.00863 *
 * Ti              9      0.04734     -0.04806     -0.04278 *
 * Ti             10     -0.02837      0.06758      0.01789 *
 * Ti             11      0.06344     -0.07728     -0.04720 *
 * Ti             12     -0.07048      0.01781     -0.01100 *
 * Ti             13     -0.01880      0.00561     -0.00117 *
 * Ti             14      0.05118     -0.03581     -0.06813 *
 * Ti             15     -0.01307     -0.02814      0.04989 *
 * Ti             16      0.04256      0.04119      0.01065 *
 * Ti             17      0.00285     -0.00585     -0.06349 *
 * Ti             18     -0.08857      0.00091     -0.08605 *
 * Ti             19     -0.06588      0.04008      0.02822 *
 * Ti             20      0.09904     -0.03372     -0.00221 *
 * Ti             21      0.04875     -0.04224     -0.00372 *
 * Ti             22     -0.00931      0.02536     -0.01961 *
 * Ti             23      0.03341     -0.02373     -0.02735 *
 * Ti             24     -0.00057     -0.00992      0.09159 *
 * Ti             25     -0.02928     -0.07454     -0.00960 *
 * Ti             26      0.09304     -0.09549      0.06235 *
 * Ti             27     -0.11356      0.08497      0.10028 *
 * Ti             28      0.04572     -0.07343      0.01446 *
 * Ti             29      0.02610      0.07966      0.10121 *
 * Ti             30     -0.01602      0.06481     -0.03582 *
 * Ti             31     -0.09484     -0.10145     -0.12146 *
 * Ti             32      0.00767     -0.00223      0.03798 *
 * Ti             33     -0.03362     -0.13490      0.01455 *
 * Ti             34     -0.01401      0.04848     -0.08691 *
 * Ti             35      0.02774      0.11209      0.12503 *
 * Ti             36     -0.13404     -0.01436      0.22227 *
 * Ti             37     -0.01840      0.01032     -0.07471 *
 * Ti             38      0.04580      0.12855     -0.06287 *
 * Ti             39      0.08718     -0.04741      0.10476 *
 * Ti             40     -0.02834      0.11036     -0.02586 *
 * Ti             41      0.01687     -0.02440      0.04032 *
 * Ti             42     -0.00533      0.05090     -0.02796 *
 * Ti             43     -0.04141     -0.11840     -0.02855 *
 * Ti             44      0.08928      0.06026     -0.00142 *
 * Ti             45      0.01871      0.04550     -0.05081 *
 * Ti             46      0.03036     -0.09955     -0.05987 *
 * Ti             47     -0.02379      0.05202      0.01459 *
 * Ti             48      0.05858      0.03839     -0.04626 *
 * Ti             49     -0.04595      0.00335     -0.01127 *
 * Ti             50      0.07808      0.03324     -0.04625 *
 * Ti             51      0.04955     -0.11126     -0.07073 *
 * Ti             52     -0.01197     -0.02772     -0.03321 *
 * Ti             53     -0.02098     -0.00512     -0.02649 *
 * Ti             54     -0.12155      0.05280      0.03453 *
 * Ti             55      0.02302      0.06638      0.03395 *
 * Ti             56      0.15993      0.06725      0.26277 *
 * Ti             57     -0.02665      0.04378     -0.09078 *
 * Ti             58     -0.00681      0.11989      0.05607 *
 * Ti             59      0.11377     -0.08345     -0.06109 *
 * Ti             60     -0.03455      0.04369     -0.04830 *
 * Ti             61     -0.12571     -0.00543      0.00393 *
 * Ti             62     -0.02583      0.01288     -0.03879 *
 * Ti             63     -0.11295     -0.10146     -0.04385 *
 * Ti             64     -0.04227      0.03343      0.03457 *
 * Ti             65     -0.03843      0.04781     -0.08337 *
 * Ti             66     -0.02975     -0.06696     -0.06044 *
 * Ti             67      0.02739     -0.01451     -0.03610 *
 * Ti             68     -0.06485      0.03786     -0.11423 *
 * Ti             69     -0.14648     -0.09159      0.00303 *
 * Ti             70      0.02978     -0.02946     -0.11270 *
 * V               1     -0.03470     -0.00874      0.02308 *
 * V               2      0.11612      0.06714      0.13032 *
 * V               3      0.29954     -0.10945      0.16860 *
 *                                                          *
 ************************************************************

 ***************** Stress Tensor *****************
 *                                               *
 *          Cartesian components (GPa)           *
 * --------------------------------------------- *
 *             x             y             z     *
 *                                               *
 *  x      3.708538      0.010774     -0.206356  *
 *  y      0.010774      1.621963      0.247306  *
 *  z     -0.206356      0.247306      1.082757  *
 *                                               *
 *  Pressure:   -2.1378                          *
 *                                               *
 *************************************************

 Pseudo atomic calculation performed for Al 3s2 3p1

 Converged in 15 iterations to a total energy of -107.1308 eV

 Pseudo atomic calculation performed for Ti 3s2 3p6 3d2 4s2

 Converged in 34 iterations to a total energy of -1587.0236 eV

 Pseudo atomic calculation performed for V 3s2 3p6 3d3 4s2

 Converged in 35 iterations to a total energy of -2065.7874 eV
Charge spilling parameter for spin component 1 = 0.08%

            Orbital Populations       
     Ion    Atom   Orbital             Charge
  -------------------------------------------
     Al     1      S                    0.921
     Al     1      Px                   0.675
     Al     1      Py                   0.663
     Al     1      Pz                   0.675
     Al     2      S                    0.966
     Al     2      Px                   0.690
     Al     2      Py                   0.721
     Al     2      Pz                   0.670
     Al     3      S                    0.970
     Al     3      Px                   0.732
     Al     3      Py                   0.745
     Al     3      Pz                   0.633
     Al     4      S                    0.973
     Al     4      Px                   0.731
     Al     4      Py                   0.721
     Al     4      Pz                   0.636
     Al     5      S                    0.947
     Al     5      Px                   0.629
     Al     5      Py                   0.661
     Al     5      Pz                   0.696
     Al     6      S                    0.979
     Al     6      Px                   0.688
     Al     6      Py                   0.715
     Al     6      Pz                   0.673
     Al     7      S                    0.982
     Al     7      Px                   0.661
     Al     7      Py                   0.715
     Al     7      Pz                   0.689
     Al     8      S                    0.958
     Al     8      Px                   0.718
     Al     8      Py                   0.708
     Al     8      Pz                   0.664
     Ti     1      S                    2.000
     Ti     1      Px                   2.003
     Ti     1      Py                   2.002
     Ti     1      Pz                   2.004
     Ti     1      S                    0.324
     Ti     1      Dzz                  0.484
     Ti     1      Dzy                  0.621
     Ti     1      Dzx                  0.626
     Ti     1      Dxx-yy               0.448
     Ti     1      Dxy                  0.446
     Ti     1      Px                   0.340
     Ti     1      Py                   0.350
     Ti     1      Pz                   0.309
     Ti     2      S                    2.004
     Ti     2      Px                   2.006
     Ti     2      Py                   2.007
     Ti     2      Pz                   2.006
     Ti     2      S                    0.283
     Ti     2      Dzz                  0.596
     Ti     2      Dzy                  0.512
     Ti     2      Dzx                  0.496
     Ti     2      Dxx-yy               0.591
     Ti     2      Dxy                  0.589
     Ti     2      Px                   0.299
     Ti     2      Py                   0.305
     Ti     2      Pz                   0.333
     Ti     3      S                    2.004
     Ti     3      Px                   2.006
     Ti     3      Py                   2.006
     Ti     3      Pz                   2.005
     Ti     3      S                    0.288
     Ti     3      Dzz                  0.602
     Ti     3      Dzy                  0.504
     Ti     3      Dzx                  0.483
     Ti     3      Dxx-yy               0.597
     Ti     3      Dxy                  0.592
     Ti     3      Px                   0.306
     Ti     3      Py                   0.316
     Ti     3      Pz                   0.325
     Ti     4      S                    2.004
     Ti     4      Px                   2.006
     Ti     4      Py                   2.007
     Ti     4      Pz                   2.006
     Ti     4      S                    0.277
     Ti     4      Dzz                  0.601
     Ti     4      Dzy                  0.507
     Ti     4      Dzx                  0.490
     Ti     4      Dxx-yy               0.590
     Ti     4      Dxy                  0.596
     Ti     4      Px                   0.297
     Ti     4      Py                   0.306
     Ti     4      Pz                   0.326
     Ti     5      S                    2.003
     Ti     5      Px                   2.006
     Ti     5      Py                   2.006
     Ti     5      Pz                   2.005
     Ti     5      S                    0.290
     Ti     5      Dzz                  0.600
     Ti     5      Dzy                  0.500
     Ti     5      Dzx                  0.484
     Ti     5      Dxx-yy               0.599
     Ti     5      Dxy                  0.593
     Ti     5      Px                   0.309
     Ti     5      Py                   0.317
     Ti     5      Pz                   0.325
     Ti     6      S                    2.000
     Ti     6      Px                   2.002
     Ti     6      Py                   2.002
     Ti     6      Pz                   2.004
     Ti     6      S                    0.323
     Ti     6      Dzz                  0.478
     Ti     6      Dzy                  0.626
     Ti     6      Dzx                  0.638
     Ti     6      Dxx-yy               0.446
     Ti     6      Dxy                  0.436
     Ti     6      Px                   0.334
     Ti     6      Py                   0.347
     Ti     6      Pz                   0.309
     Ti     7      S                    2.004
     Ti     7      Px                   2.006
     Ti     7      Py                   2.006
     Ti     7      Pz                   2.006
     Ti     7      S                    0.272
     Ti     7      Dzz                  0.581
     Ti     7      Dzy                  0.504
     Ti     7      Dzx                  0.497
     Ti     7      Dxx-yy               0.593
     Ti     7      Dxy                  0.601
     Ti     7      Px                   0.320
     Ti     7      Py                   0.319
     Ti     7      Pz                   0.341
     Ti     8      S                    2.003
     Ti     8      Px                   2.006
     Ti     8      Py                   2.006
     Ti     8      Pz                   2.005
     Ti     8      S                    0.277
     Ti     8      Dzz                  0.595
     Ti     8      Dzy                  0.505
     Ti     8      Dzx                  0.495
     Ti     8      Dxx-yy               0.586
     Ti     8      Dxy                  0.584
     Ti     8      Px                   0.328
     Ti     8      Py                   0.323
     Ti     8      Pz                   0.335
     Ti     9      S                    2.000
     Ti     9      Px                   2.002
     Ti     9      Py                   2.002
     Ti     9      Pz                   2.003
     Ti     9      S                    0.308
     Ti     9      Dzz                  0.492
     Ti     9      Dzy                  0.589
     Ti     9      Dzx                  0.604
     Ti     9      Dxx-yy               0.468
     Ti     9      Dxy                  0.455
     Ti     9      Px                   0.358
     Ti     9      Py                   0.345
     Ti     9      Pz                   0.338
     Ti    10      S                    2.004
     Ti    10      Px                   2.006
     Ti    10      Py                   2.006
     Ti    10      Pz                   2.005
     Ti    10      S                    0.277
     Ti    10      Dzz                  0.579
     Ti    10      Dzy                  0.519
     Ti    10      Dzx                  0.504
     Ti    10      Dxx-yy               0.605
     Ti    10      Dxy                  0.583
     Ti    10      Px                   0.285
     Ti    10      Py                   0.303
     Ti    10      Pz                   0.334
     Ti    11      S                    2.004
     Ti    11      Px                   2.006
     Ti    11      Py                   2.007
     Ti    11      Pz                   2.006
     Ti    11      S                    0.287
     Ti    11      Dzz                  0.608
     Ti    11      Dzy                  0.499
     Ti    11      Dzx                  0.476
     Ti    11      Dxx-yy               0.588
     Ti    11      Dxy                  0.607
     Ti    11      Px                   0.325
     Ti    11      Py                   0.304
     Ti    11      Pz                   0.322
     Ti    12      S                    2.000
     Ti    12      Px                   2.002
     Ti    12      Py                   2.002
     Ti    12      Pz                   2.003
     Ti    12      S                    0.305
     Ti    12      Dzz                  0.502
     Ti    12      Dzy                  0.613
     Ti    12      Dzx                  0.585
     Ti    12      Dxx-yy               0.442
     Ti    12      Dxy                  0.465
     Ti    12      Px                   0.349
     Ti    12      Py                   0.344
     Ti    12      Pz                   0.342
     Ti    13      S                    2.003
     Ti    13      Px                   2.006
     Ti    13      Py                   2.006
     Ti    13      Pz                   2.005
     Ti    13      S                    0.268
     Ti    13      Dzz                  0.574
     Ti    13      Dzy                  0.507
     Ti    13      Dzx                  0.500
     Ti    13      Dxx-yy               0.598
     Ti    13      Dxy                  0.598
     Ti    13      Px                   0.327
     Ti    13      Py                   0.315
     Ti    13      Pz                   0.340
     Ti    14      S                    2.004
     Ti    14      Px                   2.006
     Ti    14      Py                   2.006
     Ti    14      Pz                   2.005
     Ti    14      S                    0.280
     Ti    14      Dzz                  0.597
     Ti    14      Dzy                  0.508
     Ti    14      Dzx                  0.475
     Ti    14      Dxx-yy               0.587
     Ti    14      Dxy                  0.603
     Ti    14      Px                   0.336
     Ti    14      Py                   0.314
     Ti    14      Pz                   0.332
     Ti    15      S                    2.000
     Ti    15      Px                   2.002
     Ti    15      Py                   2.002
     Ti    15      Pz                   2.003
     Ti    15      S                    0.314
     Ti    15      Dzz                  0.489
     Ti    15      Dzy                  0.609
     Ti    15      Dzx                  0.603
     Ti    15      Dxx-yy               0.461
     Ti    15      Dxy                  0.442
     Ti    15      Px                   0.354
     Ti    15      Py                   0.345
     Ti    15      Pz                   0.340
     Ti    16      S                    2.003
     Ti    16      Px                   2.005
     Ti    16      Py                   2.006
     Ti    16      Pz                   2.005
     Ti    16      S                    0.280
     Ti    16      Dzz                  0.614
     Ti    16      Dzy                  0.500
     Ti    16      Dzx                  0.480
     Ti    16      Dxx-yy               0.583
     Ti    16      Dxy                  0.590
     Ti    16      Px                   0.315
     Ti    16      Py                   0.313
     Ti    16      Pz                   0.320
     Ti    17      S                    2.003
     Ti    17      Px                   2.006
     Ti    17      Py                   2.006
     Ti    17      Pz                   2.005
     Ti    17      S                    0.292
     Ti    17      Dzz                  0.613
     Ti    17      Dzy                  0.510
     Ti    17      Dzx                  0.479
     Ti    17      Dxx-yy               0.586
     Ti    17      Dxy                  0.582
     Ti    17      Px                   0.314
     Ti    17      Py                   0.314
     Ti    17      Pz                   0.326
     Ti    18      S                    2.000
     Ti    18      Px                   2.002
     Ti    18      Py                   2.002
     Ti    18      Pz                   2.003
     Ti    18      S                    0.312
     Ti    18      Dzz                  0.492
     Ti    18      Dzy                  0.612
     Ti    18      Dzx                  0.585
     Ti    18      Dxx-yy               0.458
     Ti    18      Dxy                  0.467
     Ti    18      Px                   0.358
     Ti    18      Py                   0.343
     Ti    18      Pz                   0.343
     Ti    19      S                    2.003
     Ti    19      Px                   2.006
     Ti    19      Py                   2.006
     Ti    19      Pz                   2.005
     Ti    19      S                    0.280
     Ti    19      Dzz                  0.584
     Ti    19      Dzy                  0.505
     Ti    19      Dzx                  0.500
     Ti    19      Dxx-yy               0.599
     Ti    19      Dxy                  0.597
     Ti    19      Px                   0.311
     Ti    19      Py                   0.293
     Ti    19      Pz                   0.335
     Ti    20      S                    2.003
     Ti    20      Px                   2.006
     Ti    20      Py                   2.006
     Ti    20      Pz                   2.005
     Ti    20      S                    0.282
     Ti    20      Dzz                  0.585
     Ti    20      Dzy                  0.504
     Ti    20      Dzx                  0.500
     Ti    20      Dxx-yy               0.593
     Ti    20      Dxy                  0.601
     Ti    20      Px                   0.305
     Ti    20      Py                   0.294
     Ti    20      Pz                   0.335
     Ti    21      S                    1.999
     Ti    21      Px                   2.002
     Ti    21      Py                   2.002
     Ti    21      Pz                   2.003
     Ti    21      S                    0.314
     Ti    21      Dzz                  0.507
     Ti    21      Dzy                  0.608
     Ti    21      Dzx                  0.586
     Ti    21      Dxx-yy               0.443
     Ti    21      Dxy                  0.460
     Ti    21      Px                   0.357
     Ti    21      Py                   0.344
     Ti    21      Pz                   0.335
     Ti    22      S                    2.003
     Ti    22      Px                   2.006
     Ti    22      Py                   2.006
     Ti    22      Pz                   2.005
     Ti    22      S                    0.276
     Ti    22      Dzz                  0.595
     Ti    22      Dzy                  0.503
     Ti    22      Dzx                  0.501
     Ti    22      Dxx-yy               0.589
     Ti    22      Dxy                  0.597
     Ti    22      Px                   0.315
     Ti    22      Py                   0.293
     Ti    22      Pz                   0.332
     Ti    23      S                    2.003
     Ti    23      Px                   2.005
     Ti    23      Py                   2.006
     Ti    23      Pz                   2.005
     Ti    23      S                    0.273
     Ti    23      Dzz                  0.571
     Ti    23      Dzy                  0.513
     Ti    23      Dzx                  0.495
     Ti    23      Dxx-yy               0.596
     Ti    23      Dxy                  0.592
     Ti    23      Px                   0.310
     Ti    23      Py                   0.318
     Ti    23      Pz                   0.344
     Ti    24      S                    2.000
     Ti    24      Px                   2.002
     Ti    24      Py                   2.002
     Ti    24      Pz                   2.003
     Ti    24      S                    0.314
     Ti    24      Dzz                  0.488
     Ti    24      Dzy                  0.624
     Ti    24      Dzx                  0.596
     Ti    24      Dxx-yy               0.438
     Ti    24      Dxy                  0.464
     Ti    24      Px                   0.353
     Ti    24      Py                   0.345
     Ti    24      Pz                   0.345
     Ti    25      S                    2.003
     Ti    25      Px                   2.005
     Ti    25      Py                   2.006
     Ti    25      Pz                   2.005
     Ti    25      S                    0.273
     Ti    25      Dzz                  0.591
     Ti    25      Dzy                  0.499
     Ti    25      Dzx                  0.488
     Ti    25      Dxx-yy               0.600
     Ti    25      Dxy                  0.585
     Ti    25      Px                   0.332
     Ti    25      Py                   0.327
     Ti    25      Pz                   0.335
     Ti    26      S                    2.003
     Ti    26      Px                   2.005
     Ti    26      Py                   2.005
     Ti    26      Pz                   2.004
     Ti    26      S                    0.274
     Ti    26      Dzz                  0.614
     Ti    26      Dzy                  0.488
     Ti    26      Dzx                  0.503
     Ti    26      Dxx-yy               0.570
     Ti    26      Dxy                  0.593
     Ti    26      Px                   0.291
     Ti    26      Py                   0.287
     Ti    26      Pz                   0.338
     Ti    27      S                    2.000
     Ti    27      Px                   2.002
     Ti    27      Py                   2.003
     Ti    27      Pz                   2.003
     Ti    27      S                    0.321
     Ti    27      Dzz                  0.492
     Ti    27      Dzy                  0.613
     Ti    27      Dzx                  0.587
     Ti    27      Dxx-yy               0.442
     Ti    27      Dxy                  0.486
     Ti    27      Px                   0.344
     Ti    27      Py                   0.324
     Ti    27      Pz                   0.332
     Ti    28      S                    2.002
     Ti    28      Px                   2.004
     Ti    28      Py                   2.004
     Ti    28      Pz                   2.004
     Ti    28      S                    0.292
     Ti    28      Dzz                  0.577
     Ti    28      Dzy                  0.515
     Ti    28      Dzx                  0.538
     Ti    28      Dxx-yy               0.508
     Ti    28      Dxy                  0.556
     Ti    28      Px                   0.312
     Ti    28      Py                   0.320
     Ti    28      Pz                   0.348
     Ti    29      S                    2.002
     Ti    29      Px                   2.005
     Ti    29      Py                   2.005
     Ti    29      Pz                   2.004
     Ti    29      S                    0.300
     Ti    29      Dzz                  0.571
     Ti    29      Dzy                  0.471
     Ti    29      Dzx                  0.480
     Ti    29      Dxx-yy               0.613
     Ti    29      Dxy                  0.597
     Ti    29      Px                   0.343
     Ti    29      Py                   0.332
     Ti    29      Pz                   0.269
     Ti    30      S                    1.999
     Ti    30      Px                   2.002
     Ti    30      Py                   2.002
     Ti    30      Pz                   2.003
     Ti    30      S                    0.311
     Ti    30      Dzz                  0.499
     Ti    30      Dzy                  0.608
     Ti    30      Dzx                  0.569
     Ti    30      Dxx-yy               0.459
     Ti    30      Dxy                  0.464
     Ti    30      Px                   0.370
     Ti    30      Py                   0.356
     Ti    30      Pz                   0.332
     Ti    31      S                    2.002
     Ti    31      Px                   2.004
     Ti    31      Py                   2.004
     Ti    31      Pz                   2.004
     Ti    31      S                    0.284
     Ti    31      Dzz                  0.557
     Ti    31      Dzy                  0.493
     Ti    31      Dzx                  0.555
     Ti    31      Dxx-yy               0.543
     Ti    31      Dxy                  0.546
     Ti    31      Px                   0.310
     Ti    31      Py                   0.302
     Ti    31      Pz                   0.349
     Ti    32      S                    2.000
     Ti    32      Px                   2.002
     Ti    32      Py                   2.003
     Ti    32      Pz                   2.003
     Ti    32      S                    0.321
     Ti    32      Dzz                  0.512
     Ti    32      Dzy                  0.606
     Ti    32      Dzx                  0.594
     Ti    32      Dxx-yy               0.440
     Ti    32      Dxy                  0.473
     Ti    32      Px                   0.336
     Ti    32      Py                   0.314
     Ti    32      Pz                   0.335
     Ti    33      S                    2.002
     Ti    33      Px                   2.004
     Ti    33      Py                   2.005
     Ti    33      Pz                   2.004
     Ti    33      S                    0.287
     Ti    33      Dzz                  0.596
     Ti    33      Dzy                  0.492
     Ti    33      Dzx                  0.521
     Ti    33      Dxx-yy               0.541
     Ti    33      Dxy                  0.573
     Ti    33      Px                   0.306
     Ti    33      Py                   0.279
     Ti    33      Pz                   0.355
     Ti    34      S                    2.001
     Ti    34      Px                   2.004
     Ti    34      Py                   2.004
     Ti    34      Pz                   2.004
     Ti    34      S                    0.309
     Ti    34      Dzz                  0.520
     Ti    34      Dzy                  0.599
     Ti    34      Dzx                  0.564
     Ti    34      Dxx-yy               0.486
     Ti    34      Dxy                  0.477
     Ti    34      Px                   0.308
     Ti    34      Py                   0.342
     Ti    34      Pz                   0.337
     Ti    35      S                    2.002
     Ti    35      Px                   2.005
     Ti    35      Py                   2.004
     Ti    35      Pz                   2.004
     Ti    35      S                    0.299
     Ti    35      Dzz                  0.604
     Ti    35      Dzy                  0.547
     Ti    35      Dzx                  0.507
     Ti    35      Dxx-yy               0.550
     Ti    35      Dxy                  0.519
     Ti    35      Px                   0.308
     Ti    35      Py                   0.264
     Ti    35      Pz                   0.341
     Ti    36      S                    2.003
     Ti    36      Px                   2.005
     Ti    36      Py                   2.006
     Ti    36      Pz                   2.005
     Ti    36      S                    0.341
     Ti    36      Dzz                  0.576
     Ti    36      Dzy                  0.489
     Ti    36      Dzx                  0.477
     Ti    36      Dxx-yy               0.603
     Ti    36      Dxy                  0.611
     Ti    36      Px                   0.383
     Ti    36      Py                   0.373
     Ti    36      Pz                   0.240
     Ti    37      S                    2.001
     Ti    37      Px                   2.003
     Ti    37      Py                   2.004
     Ti    37      Pz                   2.004
     Ti    37      S                    0.304
     Ti    37      Dzz                  0.508
     Ti    37      Dzy                  0.593
     Ti    37      Dzx                  0.560
     Ti    37      Dxx-yy               0.514
     Ti    37      Dxy                  0.453
     Ti    37      Px                   0.344
     Ti    37      Py                   0.336
     Ti    37      Pz                   0.328
     Ti    38      S                    2.002
     Ti    38      Px                   2.004
     Ti    38      Py                   2.005
     Ti    38      Pz                   2.004
     Ti    38      S                    0.285
     Ti    38      Dzz                  0.568
     Ti    38      Dzy                  0.557
     Ti    38      Dzx                  0.495
     Ti    38      Dxx-yy               0.586
     Ti    38      Dxy                  0.494
     Ti    38      Px                   0.328
     Ti    38      Py                   0.309
     Ti    38      Pz                   0.337
     Ti    39      S                    2.001
     Ti    39      Px                   2.004
     Ti    39      Py                   2.004
     Ti    39      Pz                   2.004
     Ti    39      S                    0.314
     Ti    39      Dzz                  0.537
     Ti    39      Dzy                  0.610
     Ti    39      Dzx                  0.554
     Ti    39      Dxx-yy               0.491
     Ti    39      Dxy                  0.464
     Ti    39      Px                   0.304
     Ti    39      Py                   0.341
     Ti    39      Pz                   0.334
     Ti    40      S                    2.002
     Ti    40      Px                   2.004
     Ti    40      Py                   2.005
     Ti    40      Pz                   2.004
     Ti    40      S                    0.302
     Ti    40      Dzz                  0.584
     Ti    40      Dzy                  0.521
     Ti    40      Dzx                  0.511
     Ti    40      Dxx-yy               0.573
     Ti    40      Dxy                  0.517
     Ti    40      Px                   0.336
     Ti    40      Py                   0.267
     Ti    40      Pz                   0.333
     Ti    41      S                    2.003
     Ti    41      Px                   2.005
     Ti    41      Py                   2.006
     Ti    41      Pz                   2.005
     Ti    41      S                    0.295
     Ti    41      Dzz                  0.592
     Ti    41      Dzy                  0.507
     Ti    41      Dzx                  0.507
     Ti    41      Dxx-yy               0.602
     Ti    41      Dxy                  0.566
     Ti    41      Px                   0.316
     Ti    41      Py                   0.300
     Ti    41      Pz                   0.302
     Ti    42      S                    2.000
     Ti    42      Px                   2.002
     Ti    42      Py                   2.002
     Ti    42      Pz                   2.004
     Ti    42      S                    0.332
     Ti    42      Dzz                  0.483
     Ti    42      Dzy                  0.609
     Ti    42      Dzx                  0.627
     Ti    42      Dxx-yy               0.460
     Ti    42      Dxy                  0.447
     Ti    42      Px                   0.330
     Ti    42      Py                   0.370
     Ti    42      Pz                   0.314
     Ti    43      S                    2.002
     Ti    43      Px                   2.004
     Ti    43      Py                   2.005
     Ti    43      Pz                   2.004
     Ti    43      S                    0.303
     Ti    43      Dzz                  0.587
     Ti    43      Dzy                  0.504
     Ti    43      Dzx                  0.472
     Ti    43      Dxx-yy               0.562
     Ti    43      Dxy                  0.609
     Ti    43      Px                   0.342
     Ti    43      Py                   0.329
     Ti    43      Pz                   0.279
     Ti    44      S                    2.003
     Ti    44      Px                   2.005
     Ti    44      Py                   2.005
     Ti    44      Pz                   2.005
     Ti    44      S                    0.306
     Ti    44      Dzz                  0.584
     Ti    44      Dzy                  0.501
     Ti    44      Dzx                  0.476
     Ti    44      Dxx-yy               0.579
     Ti    44      Dxy                  0.593
     Ti    44      Px                   0.361
     Ti    44      Py                   0.332
     Ti    44      Pz                   0.292
     Ti    45      S                    2.000
     Ti    45      Px                   2.002
     Ti    45      Py                   2.002
     Ti    45      Pz                   2.003
     Ti    45      S                    0.335
     Ti    45      Dzz                  0.476
     Ti    45      Dzy                  0.625
     Ti    45      Dzx                  0.613
     Ti    45      Dxx-yy               0.461
     Ti    45      Dxy                  0.447
     Ti    45      Px                   0.332
     Ti    45      Py                   0.355
     Ti    45      Pz                   0.317
     Ti    46      S                    2.003
     Ti    46      Px                   2.005
     Ti    46      Py                   2.006
     Ti    46      Pz                   2.004
     Ti    46      S                    0.290
     Ti    46      Dzz                  0.631
     Ti    46      Dzy                  0.508
     Ti    46      Dzx                  0.470
     Ti    46      Dxx-yy               0.603
     Ti    46      Dxy                  0.574
     Ti    46      Px                   0.319
     Ti    46      Py                   0.295
     Ti    46      Pz                   0.297
     Ti    47      S                    2.000
     Ti    47      Px                   2.003
     Ti    47      Py                   2.003
     Ti    47      Pz                   2.004
     Ti    47      S                    0.316
     Ti    47      Dzz                  0.515
     Ti    47      Dzy                  0.581
     Ti    47      Dzx                  0.595
     Ti    47      Dxx-yy               0.475
     Ti    47      Dxy                  0.479
     Ti    47      Px                   0.322
     Ti    47      Py                   0.285
     Ti    47      Pz                   0.316
     Ti    48      S                    2.004
     Ti    48      Px                   2.006
     Ti    48      Py                   2.007
     Ti    48      Pz                   2.006
     Ti    48      S                    0.267
     Ti    48      Dzz                  0.576
     Ti    48      Dzy                  0.533
     Ti    48      Dzx                  0.492
     Ti    48      Dxx-yy               0.594
     Ti    48      Dxy                  0.581
     Ti    48      Px                   0.322
     Ti    48      Py                   0.304
     Ti    48      Pz                   0.351
     Ti    49      S                    2.003
     Ti    49      Px                   2.006
     Ti    49      Py                   2.006
     Ti    49      Pz                   2.006
     Ti    49      S                    0.264
     Ti    49      Dzz                  0.581
     Ti    49      Dzy                  0.505
     Ti    49      Dzx                  0.502
     Ti    49      Dxx-yy               0.591
     Ti    49      Dxy                  0.608
     Ti    49      Px                   0.313
     Ti    49      Py                   0.290
     Ti    49      Pz                   0.333
     Ti    50      S                    1.999
     Ti    50      Px                   2.002
     Ti    50      Py                   2.002
     Ti    50      Pz                   2.003
     Ti    50      S                    0.313
     Ti    50      Dzz                  0.502
     Ti    50      Dzy                  0.585
     Ti    50      Dzx                  0.601
     Ti    50      Dxx-yy               0.465
     Ti    50      Dxy                  0.447
     Ti    50      Px                   0.329
     Ti    50      Py                   0.360
     Ti    50      Pz                   0.333
     Ti    51      S                    2.003
     Ti    51      Px                   2.005
     Ti    51      Py                   2.006
     Ti    51      Pz                   2.005
     Ti    51      S                    0.283
     Ti    51      Dzz                  0.587
     Ti    51      Dzy                  0.522
     Ti    51      Dzx                  0.455
     Ti    51      Dxx-yy               0.572
     Ti    51      Dxy                  0.619
     Ti    51      Px                   0.321
     Ti    51      Py                   0.297
     Ti    51      Pz                   0.333
     Ti    52      S                    2.003
     Ti    52      Px                   2.006
     Ti    52      Py                   2.005
     Ti    52      Pz                   2.005
     Ti    52      S                    0.273
     Ti    52      Dzz                  0.583
     Ti    52      Dzy                  0.504
     Ti    52      Dzx                  0.500
     Ti    52      Dxx-yy               0.592
     Ti    52      Dxy                  0.600
     Ti    52      Px                   0.315
     Ti    52      Py                   0.293
     Ti    52      Pz                   0.340
     Ti    53      S                    2.000
     Ti    53      Px                   2.002
     Ti    53      Py                   2.003
     Ti    53      Pz                   2.004
     Ti    53      S                    0.319
     Ti    53      Dzz                  0.510
     Ti    53      Dzy                  0.592
     Ti    53      Dzx                  0.605
     Ti    53      Dxx-yy               0.466
     Ti    53      Dxy                  0.467
     Ti    53      Px                   0.348
     Ti    53      Py                   0.286
     Ti    53      Pz                   0.332
     Ti    54      S                    2.003
     Ti    54      Px                   2.006
     Ti    54      Py                   2.006
     Ti    54      Pz                   2.005
     Ti    54      S                    0.270
     Ti    54      Dzz                  0.584
     Ti    54      Dzy                  0.514
     Ti    54      Dzx                  0.470
     Ti    54      Dxx-yy               0.604
     Ti    54      Dxy                  0.598
     Ti    54      Px                   0.306
     Ti    54      Py                   0.319
     Ti    54      Pz                   0.344
     Ti    55      S                    2.003
     Ti    55      Px                   2.006
     Ti    55      Py                   2.006
     Ti    55      Pz                   2.005
     Ti    55      S                    0.252
     Ti    55      Dzz                  0.595
     Ti    55      Dzy                  0.502
     Ti    55      Dzx                  0.483
     Ti    55      Dxx-yy               0.592
     Ti    55      Dxy                  0.608
     Ti    55      Px                   0.304
     Ti    55      Py                   0.309
     Ti    55      Pz                   0.351
     Ti    56      S                    2.001
     Ti    56      Px                   2.004
     Ti    56      Py                   2.003
     Ti    56      Pz                   2.003
     Ti    56      S                    0.288
     Ti    56      Dzz                  0.557
     Ti    56      Dzy                  0.525
     Ti    56      Dzx                  0.509
     Ti    56      Dxx-yy               0.527
     Ti    56      Dxy                  0.566
     Ti    56      Px                   0.310
     Ti    56      Py                   0.305
     Ti    56      Pz                   0.345
     Ti    57      S                    2.004
     Ti    57      Px                   2.006
     Ti    57      Py                   2.007
     Ti    57      Pz                   2.005
     Ti    57      S                    0.290
     Ti    57      Dzz                  0.576
     Ti    57      Dzy                  0.518
     Ti    57      Dzx                  0.493
     Ti    57      Dxx-yy               0.588
     Ti    57      Dxy                  0.598
     Ti    57      Px                   0.327
     Ti    57      Py                   0.311
     Ti    57      Pz                   0.341
     Ti    58      S                    2.001
     Ti    58      Px                   2.003
     Ti    58      Py                   2.003
     Ti    58      Pz                   2.004
     Ti    58      S                    0.300
     Ti    58      Dzz                  0.522
     Ti    58      Dzy                  0.529
     Ti    58      Dzx                  0.582
     Ti    58      Dxx-yy               0.440
     Ti    58      Dxy                  0.546
     Ti    58      Px                   0.367
     Ti    58      Py                   0.318
     Ti    58      Pz                   0.338
     Ti    59      S                    2.002
     Ti    59      Px                   2.004
     Ti    59      Py                   2.004
     Ti    59      Pz                   2.004
     Ti    59      S                    0.281
     Ti    59      Dzz                  0.578
     Ti    59      Dzy                  0.505
     Ti    59      Dzx                  0.529
     Ti    59      Dxx-yy               0.532
     Ti    59      Dxy                  0.563
     Ti    59      Px                   0.303
     Ti    59      Py                   0.312
     Ti    59      Pz                   0.343
     Ti    60      S                    2.003
     Ti    60      Px                   2.006
     Ti    60      Py                   2.006
     Ti    60      Pz                   2.005
     Ti    60      S                    0.287
     Ti    60      Dzz                  0.598
     Ti    60      Dzy                  0.487
     Ti    60      Dzx                  0.491
     Ti    60      Dxx-yy               0.590
     Ti    60      Dxy                  0.593
     Ti    60      Px                   0.323
     Ti    60      Py                   0.321
     Ti    60      Pz                   0.330
     Ti    61      S                    2.001
     Ti    61      Px                   2.004
     Ti    61      Py                   2.005
     Ti    61      Pz                   2.004
     Ti    61      S                    0.301
     Ti    61      Dzz                  0.549
     Ti    61      Dzy                  0.509
     Ti    61      Dzx                  0.591
     Ti    61      Dxx-yy               0.473
     Ti    61      Dxy                  0.535
     Ti    61      Px                   0.338
     Ti    61      Py                   0.281
     Ti    61      Pz                   0.344
     Ti    62      S                    2.003
     Ti    62      Px                   2.006
     Ti    62      Py                   2.004
     Ti    62      Pz                   2.005
     Ti    62      S                    0.290
     Ti    62      Dzz                  0.608
     Ti    62      Dzy                  0.492
     Ti    62      Dzx                  0.488
     Ti    62      Dxx-yy               0.614
     Ti    62      Dxy                  0.531
     Ti    62      Px                   0.321
     Ti    62      Py                   0.335
     Ti    62      Pz                   0.323
     Ti    63      S                    2.001
     Ti    63      Px                   2.004
     Ti    63      Py                   2.004
     Ti    63      Pz                   2.004
     Ti    63      S                    0.312
     Ti    63      Dzz                  0.509
     Ti    63      Dzy                  0.597
     Ti    63      Dzx                  0.555
     Ti    63      Dxx-yy               0.506
     Ti    63      Dxy                  0.492
     Ti    63      Px                   0.295
[...]
             Ti 2  -- Ti 3                   0.35        2.64460
             Ti 3  -- Ti 19                  0.38        2.65297
             Ti 25 -- Ti 26                  0.29        2.65304
             Ti 64 -- Ti 65                  0.30        2.65371
             Ti 16 -- Ti 17                  0.33        2.65639
             Ti 4  -- Ti 5                   0.35        2.65743
             Ti 5  -- Ti 22                  0.37        2.66133
             Ti 20 -- Ti 41                  0.29        2.66335
             Ti 48 -- Ti 57                  0.28        2.66521
             Ti 52 -- Ti 67                  0.34        2.66974
             Ti 56 -- Ti 57                  0.31        2.67166
              Al 8 -- Ti 70                  0.33        2.67508
             Ti 43 -- V 1                    0.32        2.67528
             Ti 10 -- Ti 57                  0.31        2.67640
             Ti 67 -- Ti 68                  0.32        2.67922
             Ti 8  -- Ti 25                  0.28        2.68108
              Al 2 -- Ti 33                  0.35        2.68268
             Ti 22 -- Ti 68                  0.32        2.68372
              Al 6 -- Ti 41                  0.39        2.68473
             Ti 16 -- Ti 26                  0.33        2.68489
              Al 8 -- Ti 55                  0.33        2.68521
              Al 7 -- Ti 46                  0.41        2.69106
              Al 2 -- Ti 54                  0.34        2.69138
             Ti 13 -- Ti 60                  0.33        2.69184
             Ti 54 -- Ti 62                  0.27        2.69351
             Ti 19 -- Ti 65                  0.30        2.69435
              Al 8 -- Ti 46                  0.33        2.69603
             Ti 59 -- V 3                    0.19        2.69686
             Ti 43 -- Ti 44                  0.32        2.69708
             Ti 29 -- Ti 48                  0.25        2.69823
             Ti 25 -- Ti 70                  0.28        2.69892
              Al 3 -- Ti 61                  0.32        2.69966
             Ti 2  -- Ti 11                  0.30        2.70387
              Al 6 -- Ti 64                  0.34        2.70677
             Ti 29 -- Ti 41                  0.26        2.70772
              Al 2 -- V 1                    0.33        2.71100
              Al 4 -- V 2                    0.32        2.71448
             Ti 7  -- Ti 17                  0.29        2.71550
             Ti 23 -- Ti 43                  0.29        2.71680
             Ti 11 -- Ti 35                  0.26        2.71972
              Al 3 -- Al 4                   0.24        2.72033
             Ti 8  -- Ti 33                  0.27        2.72194
              Al 7 -- Ti 26                  0.38        2.72242
             Ti 14 -- Ti 38                  0.24        2.72251
             Ti 28 -- Ti 29                  0.22        2.72459
             Ti 51 -- Ti 60                  0.28        2.72484
             Ti 59 -- Ti 60                  0.25        2.72504
             Ti 4  -- Ti 14                  0.29        2.72681
             Ti 17 -- Ti 40                  0.24        2.74083
             Ti 59 -- Ti 68                  0.26        2.74773
              Al 6 -- Ti 35                  0.33        2.74881
             Ti 38 -- Ti 44                  0.23        2.75251
             Ti 44 -- Ti 67                  0.30        2.75366
             Ti 40 -- Ti 46                  0.24        2.75504
             Ti 3  -- Ti 28                  0.25        2.75510
             Ti 58 -- V 2                    0.36        2.75708
              Al 6 -- Ti 44                  0.30        2.76321
              Al 7 -- Ti 41                  0.33        2.76363
              Al 6 -- Ti 46                  0.32        2.76684
             Ti 29 -- V 2                    0.17        2.76963
             Ti 36 -- Ti 58                  0.23        2.77208
             Ti 28 -- Ti 31                  0.22        2.77321
              Al 3 -- Ti 39                  0.30        2.77504
              Al 8 -- Ti 67                  0.28        2.77580
             Ti 5  -- Ti 31                  0.27        2.77588
             Ti 56 -- Ti 65                  0.25        2.77885
             Ti 57 -- Ti 62                  0.12        2.77903
             Ti 20 -- Ti 23                  0.13        2.78205
             Ti 48 -- Ti 54                  0.14        2.78429
             Ti 49 -- Ti 52                  0.05        2.78506
              Al 3 -- Ti 69                  0.26        2.78802
             Ti 16 -- Ti 62                  0.28        2.78946
              Al 8 -- Ti 64                  0.31        2.79039
             Ti 35 -- Ti 36                  0.19        2.79199
              Al 3 -- Ti 38                  0.27        2.79207
             Ti 34 -- Ti 37                  0.34        2.79229
             Ti 65 -- Ti 68                  0.11        2.79294
              Al 4 -- Ti 63                  0.31        2.79477
             Ti 63 -- Ti 66                  0.30        2.80177
             Ti 9  -- Ti 15                  0.43        2.80207
             Ti 37 -- Ti 39                  0.33        2.80313
             Ti 1  -- Ti 6                   0.40        2.80343
             Ti 42 -- Ti 45                  0.38        2.80739
              Al 7 -- Ti 43                  0.27        2.80867
             Ti 38 -- Ti 40                  0.17        2.80875
              Al 4 -- V 3                    0.28        2.80901
             Ti 14 -- Ti 17                  0.14        2.80941
             Ti 19 -- Ti 22                  0.10        2.81042
             Ti 47 -- Ti 53                  0.33        2.81190
             Ti 29 -- V 1                    0.18        2.81380
             Ti 56 -- V 3                    0.23        2.81439
              Al 4 -- Ti 33                  0.27        2.81478
             Ti 18 -- Ti 24                  0.41        2.81490
             Ti 30 -- Ti 32                  0.34        2.81506
             Ti 2  -- Ti 7                   0.13        2.81652
             Ti 3  -- Ti 8                   0.10        2.81702
              Al 3 -- V 3                    0.25        2.81719
             Ti 10 -- Ti 13                  0.11        2.81800
             Ti 61 -- V 2                    0.34        2.81806
             Ti 69 -- V 3                    0.17        2.81818
             Ti 48 -- Ti 51                  0.10        2.81833
             Ti 66 -- Ti 69                  0.32        2.81861
             Ti 27 -- Ti 30                  0.39        2.81864
             Ti 11 -- Ti 17                  0.09        2.81886
             Ti 18 -- Ti 21                  0.37        2.81953
             Ti 13 -- Ti 16                  0.10        2.82243
             Ti 22 -- Ti 25                  0.10        2.82259
             Ti 4  -- Ti 7                   0.13        2.82260
             Ti 3  -- Ti 5                   0.09        2.82367
              Al 5 -- Ti 45                  0.45        2.82414
             Ti 5  -- Ti 8                   0.10        2.82439
             Ti 50 -- Ti 53                  0.39        2.82484
              Al 2 -- Ti 61                  0.24        2.82564
             Ti 2  -- Ti 4                   0.09        2.82601
             Ti 10 -- Ti 16                  0.09        2.82610
             Ti 35 -- Ti 38                  0.25        2.82769
             Ti 12 -- Ti 15                  0.39        2.82810
             Ti 54 -- V 2                    0.21        2.82816
             Ti 35 -- Ti 40                  0.19        2.82866
             Ti 36 -- Ti 66                  0.21        2.82885
             Ti 47 -- Ti 50                  0.37        2.82944
              Al 1 -- Ti 1                   0.36        2.83006
              Al 1 -- Ti 6                   0.36        2.83130
             Ti 27 -- Ti 32                  0.35        2.83183
             Ti 21 -- Ti 24                  0.38        2.83186
             Ti 28 -- Ti 33                  0.21        2.83207
             Ti 19 -- Ti 25                  0.09        2.83227
              Al 5 -- Ti 42                  0.38        2.83415
             Ti 65 -- Ti 70                  0.16        2.83437
              Al 4 -- Ti 34                  0.31        2.83505
             Ti 9  -- Ti 12                  0.36        2.83543
             Ti 11 -- Ti 14                  0.13        2.83728
             Ti 52 -- Ti 55                  0.08        2.83853
             Ti 68 -- Ti 70                  0.13        2.83895
             Ti 23 -- Ti 26                  0.15        2.83944
              Al 3 -- Ti 40                  0.27        2.83953
             Ti 49 -- Ti 55                  0.08        2.84194
             Ti 58 -- V 1                    0.17        2.84312
             Ti 48 -- Ti 58                  0.12        2.84347
             Ti 20 -- Ti 26                  0.12        2.84501
             Ti 57 -- Ti 60                  0.14        2.84680
             Ti 63 -- Ti 69                  0.29        2.84753
              Al 4 -- Ti 36                  0.22        2.85178
             Ti 28 -- Ti 36                  0.15        2.85401
              Al 4 -- Ti 56                  0.19        2.85813
             Ti 60 -- Ti 62                  0.12        2.85816
              Al 3 -- Ti 31                  0.23        2.85909
             Ti 31 -- Ti 33                  0.21        2.86002
             Ti 36 -- Ti 37                  0.20        2.86069
             Ti 36 -- Ti 59                  0.21        2.86695
             Ti 51 -- Ti 54                  0.15        2.86919
             Ti 34 -- Ti 39                  0.35        2.87045
              Al 7 -- Ti 27                  0.25        2.87811
             Ti 30 -- V 1                    0.20        2.87880
             Ti 65 -- Ti 66                  0.16        2.87931
             Ti 32 -- Ti 43                  0.14        2.87940
             Ti 64 -- Ti 66                  0.16        2.88120
              Al 4 -- Ti 40                  0.25        2.88489
             Ti 11 -- Ti 37                  0.16        2.88745
             Ti 36 -- Ti 38                  0.19        2.88818
             Ti 44 -- Ti 66                  0.17        2.88913
             Ti 53 -- Ti 67                  0.18        2.89026
             Ti 51 -- Ti 58                  0.13        2.89403
              Al 3 -- Ti 59                  0.19        2.89643
             Ti 21 -- Ti 65                  0.20        2.89823
              Al 3 -- Ti 36                  0.19        2.89841
             Ti 64 -- Ti 67                  0.11        2.89929
             Ti 61 -- V 3                    0.16        2.89948
             Ti 61 -- Ti 62                  0.04        2.90115
             Ti 41 -- Ti 43                  0.09        2.90184
             Ti 58 -- Ti 61                  0.31        2.90245
             Ti 48 -- V 2                    0.16        2.90258
             Ti 42 -- Ti 44                  0.21        2.90466
             Ti 2  -- Ti 37                  0.16        2.90528
              Al 6 -- Ti 66                  0.22        2.90670
             Ti 14 -- Ti 39                  0.14        2.90825
             Ti 11 -- Ti 34                  0.16        2.90960
              Al 6 -- Ti 63                  0.23        2.90967
             Ti 63 -- Ti 70                  0.09        2.91079
             Ti 67 -- Ti 69                  0.17        2.91086
             Ti 51 -- Ti 61                  0.14        2.91121
             Ti 24 -- Ti 68                  0.14        2.91345
              Al 7 -- Ti 47                  0.23        2.91775
             Ti 62 -- V 2                    0.08        2.92075
             Ti 28 -- V 2                    0.17        2.92157
             Ti 4  -- Ti 39                  0.13        2.92221
              Al 2 -- Ti 53                  0.25        2.92570
              Al 8 -- Ti 63                  0.23        2.92681
             Ti 29 -- Ti 47                  0.16        2.92983
             Ti 24 -- Ti 70                  0.14        2.93017
             Ti 18 -- Ti 70                  0.13        2.93120
              Al 3 -- Ti 33                  0.21        2.93266
             Ti 9  -- Ti 57                  0.13        2.93331
             Ti 21 -- Ti 68                  0.17        2.93411
             Ti 44 -- Ti 46                  0.13        2.93578
             Ti 4  -- Ti 37                  0.14        2.93994
             Ti 18 -- Ti 62                  0.14        2.94059
             Ti 7  -- Ti 39                  0.15        2.94082
              Al 2 -- V 2                    0.19        2.94094
             Ti 16 -- Ti 18                  0.16        2.94262
             Ti 17 -- Ti 34                  0.15        2.94278
             Ti 1  -- Ti 64                  0.15        2.94292
             Ti 36 -- Ti 56                  0.17        2.94314
             Ti 66 -- Ti 67                  0.14        2.94429
             Ti 4  -- Ti 12                  0.15        2.94460
             Ti 6  -- Ti 67                  0.13        2.94472
             Ti 31 -- Ti 36                  0.15        2.94608
             Ti 33 -- V 2                    0.15        2.94639
             Ti 44 -- Ti 50                  0.16        2.94665
             Ti 3  -- Ti 30                  0.17        2.94694
              Al 2 -- Ti 29                  0.24        2.94741
              Al 8 -- Ti 53                  0.19        2.94741
              Al 8 -- Ti 47                  0.20        2.94840
             Ti 6  -- Ti 25                  0.13        2.94900
              Al 4 -- Ti 28                  0.17        2.94967
              Al 2 -- Ti 32                  0.24        2.95073
             Ti 17 -- Ti 39                  0.11        2.95094
             Ti 12 -- Ti 57                  0.16        2.95245
             Ti 3  -- Ti 37                  0.15        2.95371
             Ti 34 -- Ti 35                  0.13        2.95458
             Ti 27 -- Ti 29                  0.16        2.95517
             Ti 5  -- Ti 39                  0.12        2.95637
             Ti 15 -- Ti 60                  0.15        2.95640
             Ti 46 -- Ti 69                  0.14        2.95666
              Al 8 -- Ti 69                  0.21        2.95690
             Ti 8  -- Ti 27                  0.12        2.95782
             Ti 46 -- Ti 63                  0.16        2.95802
             Ti 5  -- Ti 37                  0.13        2.95868
             Ti 68 -- Ti 69                  0.09        2.95881
             Ti 56 -- Ti 63                  0.14        2.95894
             Ti 28 -- Ti 34                  0.14        2.95897
             Ti 43 -- Ti 53                  0.12        2.95902
             Ti 2  -- Ti 34                  0.12        2.95958
             Ti 14 -- Ti 37                  0.14        2.96021
             Ti 46 -- Ti 53                  0.15        2.96147
             Ti 47 -- Ti 64                  0.11        2.96176
             Ti 31 -- Ti 37                  0.14        2.96264
             Ti 33 -- Ti 61                  0.11        2.96316
             Ti 5  -- Ti 32                  0.16        2.96392
             Ti 56 -- Ti 59                  0.24        2.96475
             Ti 30 -- Ti 41                  0.13        2.96566
             Ti 66 -- Ti 68                  0.18        2.96741
             Ti 8  -- Ti 39                  0.13        2.96884
              Al 6 -- Ti 47                  0.22        2.96905
             Ti 57 -- Ti 58                  0.14        2.96931
             Ti 7  -- Ti 34                  0.13        2.97084
             Ti 8  -- Ti 32                  0.12        2.97111
             Ti 9  -- Ti 54                  0.15        2.97158
             Ti 1  -- Ti 25                  0.15        2.97181
             Ti 60 -- Ti 61                  0.14        2.97253
             Ti 9  -- Ti 17                  0.14        2.97279
             Ti 59 -- Ti 66                  0.15        2.97289
             Ti 45 -- Ti 46                  0.17        2.97314
              Al 1 -- Ti 64                  0.17        2.97372
             Ti 5  -- Ti 30                  0.17        2.97389
             Ti 44 -- Ti 69                  0.11        2.97544
              Al 8 -- Ti 1                   0.19        2.97579
             Ti 18 -- Ti 20                  0.14        2.97716
             Ti 2  -- Ti 12                  0.14        2.98037
             Ti 1  -- Ti 19                  0.14        2.98092
             Ti 16 -- Ti 24                  0.15        2.98097
             Ti 12 -- Ti 52                  0.12        2.98112
             Ti 2  -- Ti 9                   0.12        2.98119
             Ti 63 -- V 3                    0.18        2.98142
             Ti 27 -- Ti 41                  0.18        2.98143
             Ti 41 -- Ti 42                  0.15        2.98161
             Ti 3  -- Ti 34                  0.12        2.98188
             Ti 35 -- Ti 63                  0.15        2.98284
              Al 1 -- Ti 22                  0.17        2.98307
              Al 5 -- Ti 46                  0.20        2.98315
             Ti 24 -- Ti 60                  0.13        2.98462
             Ti 69 -- Ti 70                  0.07        2.98485
             Ti 59 -- Ti 61                  0.12        2.98626
             Ti 56 -- V 2                    0.16        2.98642
             Ti 63 -- Ti 64                  0.13        2.98664
             Ti 9  -- Ti 10                  0.12        2.98676
             Ti 15 -- Ti 54                  0.13        2.98686
              Al 1 -- Ti 19                  0.16        2.98689
             Ti 3  -- Ti 27                  0.15        2.98689
              Al 5 -- Ti 17                  0.16        2.98775
              Al 8 -- Ti 6                   0.19        2.98784
              Al 4 -- Ti 35                  0.18        2.98795
             Ti 24 -- Ti 62                  0.14        2.98804
             Ti 28 -- Ti 58                  0.07        2.98825
             Ti 37 -- Ti 38                  0.10        2.98827
             Ti 46 -- Ti 47                  0.13        2.98875
             Ti 26 -- Ti 45                  0.12        2.98967
              Al 5 -- Al 6                   0.19        2.98990
             Ti 15 -- Ti 16                  0.13        2.99001
             Ti 8  -- Ti 34                  0.12        2.99222
             Ti 23 -- Ti 42                  0.13        2.99352
             Ti 9  -- Ti 16                  0.13        2.99488
              Al 7 -- Ti 32                  0.18        2.99525
             Ti 21 -- Ti 57                  0.15        2.99663
             Ti 50 -- Ti 64                  0.14        2.99721
             Ti 44 -- Ti 45                  0.14        2.99837
             Ti 6  -- Ti 55                  0.13        2.99906
             Ti 58 -- Ti 59                  0.15        2.99926
             Ti 18 -- Ti 65                  0.13        2.99996
======================================================================

 
 A BibTeX formatted list of references used in this run has been written to 
 sqs_hex_sc3x3x3_Ti70Al8V3_frame0_14.bib
 
Initialisation time =     23.97 s
Calculation time    =   6659.01 s
Finalisation time   =      0.65 s
Total time          =   6683.63 s
Peak Memory Use     = 2632848 kB
 
Overall parallel efficiency rating: Mediocre (58%)
 
Data was distributed by:-
G-vector (16-way); efficiency rating: Mediocre (59%)
k-point (15-way); efficiency rating: Excellent (95%)
