 +-------------------------------------------------+
 |                                                 |
 |      CCC   AA    SSS  TTTTT  EEEEE  PPPP        |
 |     C     A  A  S       T    E      P   P       |
 |     C     AAAA   SS     T    EEE    PPPP        |
 |     C     A  A     S    T    E      P           |
 |      CCC  A  A  SSS     T    EEEEE  P           |
 |                                                 |
 +-------------------------------------------------+
 |                                                 |
 | Welcome to Academic Release CASTEP version 24.1 |
 | Ab Initio Total Energy Program                  |
 |                                                 |
 | Authors:                                        |
 | M. Segall, M. Probert, C. Pickard, P. Hasnip,   |
 | S. Clark, K. Refson, J. R. Yates,               |
 | A. Bartok-Partay, M. Payne                      |
 |                                                 |
 | Contributors:                                   |
 | P. Lindan, P. Haynes, J. White, V. Milman,      |
 | N. Govind, M. Gibson, P. Tulip, V. Cocula,      |
 | B. Montanari, D. Quigley, M. Glover,            |
 | L. Bernasconi, A. Perlov, M. Plummer,           |
 | E. McNellis, J. Meyer, J. Gale, D. Jochym       |
 | J. Aarons, B. Walker, R. Gillen, D. Jones       |
 | T. Green, I. J. Bush, C. J. Armstrong,          |
 | E. J. Higgins, E. L. Brown, M. S. McFly,        |
 | J. Wilkins, B-C. Shih, P. J. P. Byrne,          |
 | R. J. Maurer, J. C. Womack, J. Dziedzic,        |
 | L. LeBlanc, T. K. Stenczel, J. Kermode,         |
 | S. Sturniolo, B. Shi, B. Durham, M. Evans,      |
 | M. J. Smith, A. Tamerus, Z. Hawkhead,           |
 | V. Ravindran, T. Hollins, S. A. Joyce,          |
 | R. T. Strong, A. M. Reilly                      |
 |                                                 |
 | Copyright (c) 2000 - 2023                       |
 |                                                 |
 |     Distributed under license from Cambridge    |
 |     Enterprise for academic use only.           |
 |                                                 |
 | Please cite                                     |
 |                                                 |
 |     "First principles methods using CASTEP"     |
 |                                                 |
 |         Zeitschrift fuer Kristallographie       |
 |           220(5-6) pp. 567-570 (2005)           |
 |                                                 |
 | S. J. Clark, M. D. Segall, C. J. Pickard,       |
 | P. J. Hasnip, M. J. Probert, K. Refson,         |
 | M. C. Payne                                     |
 |                                                 |
 |       in all publications arising from          |
 |              your use of CASTEP                 |
 |                                                 |
 +-------------------------------------------------+
 |                                                 |
 |              http://www.castep.org              |
 |                                                 |
 +-------------------------------------------------+



 Compiled for linux_x86_64_gfortran10 on Tue, 02 May 2023 15:31:46 +0100
 from code version db08e394c+  default  Mon May 1 16:40:39 2023 +0100
 Compiler: GNU Fortran 10.2.0; Optimisation: fast
 Comms   : Open MPI v4.0.5
 MATHLIBS: openblas (LAPACK version 3.9.0)
 FFT Lib : fftw3 version fftw-3.3.8-sse2-avx-avx2-avx2_128
 Fundamental constants values: CODATA 2018

 Run started: Wed, 07 Feb 2024 11:23:00 +0000
 Info: number of up-spin electrons is not equal to the
       number of down-spins but spin_polarized=false
     - consider setting spin_polarized=true.

 Atomic calculation performed for Al: 1s2 2s2 2p6 3s2 3p1

 Converged in 54 iterations to an ae energy of -6603.783 eV

   ============================================================                
   | Pseudopotential Report - Date of generation  7-02-2024   |                
   ------------------------------------------------------------                
   | Element: Al Ionic charge:  3.00 Level of theory: PBE     |                
   | Atomic Solver: Koelling-Harmon                           |                
   |                                                          |                
   |               Reference Electronic Structure             |                
   |         Orbital         Occupation         Energy        |                
   |            3s              2.000           -0.285        |                
   |            3p              1.000           -0.100        |                
   |                                                          |                
   |                 Pseudopotential Definition               |                
   |        Beta     l      e      Rc     scheme   norm       |                
   |          1      0   -0.285   2.192     qc      0         |                
   |          2      0    0.250   2.192     qc      0         |                
   |          3      1   -0.100   2.192     qc      0         |                
   |          4      1    0.250   2.192     qc      0         |                
   |          5      2    0.000   2.000     qc      0         |                
   |          6      2    0.250   2.000     qc      0         |                
   |         loc     3    0.000   2.192     pn      0         |                
   |                                                          |                
   | Augmentation charge Rinner = 1.398                       |                
   | Partial core correction Rc = 1.398                       |                
   ------------------------------------------------------------                
   | "3|2.2|2.2|1.4|4|5|5|30:31:32U2U2"                       |                
   ------------------------------------------------------------                
   |      Author: Chris J. Pickard, Cambridge University      |                
   ============================================================                

 Atomic calculation performed for Ti: 1s2 2s2 2p6 3s2 3p6 3d2 4s2

 Converged in 79 iterations to an ae energy of -23226.658 eV

   ============================================================                
   | Pseudopotential Report - Date of generation  7-02-2024   |                
   ------------------------------------------------------------                
   | Element: Ti Ionic charge: 12.00 Level of theory: PBE     |                
   | Atomic Solver: Koelling-Harmon                           |                
   |                                                          |                
   |               Reference Electronic Structure             |                
   |         Orbital         Occupation         Energy        |                
   |            3s              2.000           -2.302        |                
   |            3p              6.000           -1.428        |                
   |            4s              2.000           -0.164        |                
   |            3d              2.000           -0.157        |                
   |                                                          |                
   |                 Pseudopotential Definition               |                
   |        Beta     l      e      Rc     scheme   norm       |                
   |          1      0   -2.302   1.793     qc      0         |                
   |          2      0   -0.164   1.793     qc      0         |                
   |          3      0    0.250   1.793     qc      0         |                
   |          4      1   -1.428   1.793     qc      0         |                
   |          5      1    0.250   1.793     qc      0         |                
   |          6      2   -0.157   1.793     qc      0         |                
   |          7      2    0.250   1.793     qc      0         |                
   |         loc     3    0.000   1.793     pn      0         |                
   |                                                          |                
   | Augmentation charge Rinner = 1.263                       |                
   | Partial core correction Rc = 1.263                       |                
   ------------------------------------------------------------                
   | "3|1.8|9|10|11|30U:40:31:32(qc=5.5)"                     |                
   ------------------------------------------------------------                
   |      Author: Chris J. Pickard, Cambridge University      |                
   ============================================================                

 Atomic calculation performed for V: 1s2 2s2 2p6 3s2 3p6 3d3 4s2

 Converged in 81 iterations to an ae energy of -25823.733 eV

   ============================================================                
   | Pseudopotential Report - Date of generation  7-02-2024   |                
   ------------------------------------------------------------                
   | Element: V Ionic charge: 13.00 Level of theory: PBE      |                
   | Atomic Solver: Koelling-Harmon                           |                
   |                                                          |                
   |               Reference Electronic Structure             |                
   |         Orbital         Occupation         Energy        |                
   |            3s              2.000           -2.581        |                
   |            3p              6.000           -1.618        |                
   |            3d              3.000           -0.190        |                
   |            4s              2.000           -0.173        |                
   |                                                          |                
   |                 Pseudopotential Definition               |                
   |        Beta     l      e      Rc     scheme   norm       |                
   |          1      0   -2.581   1.803     qc      0         |                
   |          2      0   -0.173   1.803     qc      0         |                
   |          3      0    0.250   1.803     qc      0         |                
   |          4      1   -1.618   1.803     qc      0         |                
   |          5      1    0.250   1.803     qc      0         |                
   |          6      2   -0.190   1.803     qc      0         |                
   |          7      2    0.250   1.803     qc      0         |                
   |         loc     3    0.000   1.803     pn      0         |                
   |                                                          |                
   | Augmentation charge Rinner = 0.600                       |                
   | Partial core correction Rc = 0.600                       |                
   ------------------------------------------------------------                
   | "3|1.8|1.8|0.6|12|14|16|30U:40:31:32(qc=7)"              |                
   ------------------------------------------------------------                
   |      Author: Chris J. Pickard, Cambridge University      |                
   ============================================================                

 Pseudo atomic calculation performed for Al 3s2 3p1

 Converged in 15 iterations to a total energy of -107.1308 eV

 Pseudo atomic calculation performed for Ti 3s2 3p6 3d2 4s2

 Converged in 34 iterations to a total energy of -1587.0236 eV

 Pseudo atomic calculation performed for V 3s2 3p6 3d3 4s2

 Converged in 35 iterations to a total energy of -2065.7874 eV
 Calculation parallelised over 288 processes.
 Data is distributed by G-vector(16-way) and k-point(18-way)

 ************************************ Title ************************************
 

 ***************************** General Parameters ******************************
  
 output verbosity                               : normal  (1)
 write checkpoint data to                       : sqs_bcc_sc4x4x4_Ti55Al7V2_frame0_02.check
 type of calculation                            : single point energy
 stress calculation                             : on
 density difference calculation                 : off
 electron localisation func (ELF) calculation   : off
 Hirshfeld analysis                             : off
 polarisation (Berry phase) analysis            : off
 molecular orbital projected DOS                : off
 deltaSCF calculation                           : off
 unlimited duration calculation
 timing information                             : on
 memory usage estimate                          : on
 write extra output files                       : on
 write final potential to formatted file        : off
 write final density to formatted file          : off
 write BibTeX reference list                    : on
 write OTFG pseudopotential files               : on
 write electrostatic potential file             : on
 write bands file                               : on
 checkpoint writing                             : both castep_bin and check files
  
 output         length unit                     : A
 output           mass unit                     : amu
 output           time unit                     : ps
 output         charge unit                     : e
 output           spin unit                     : hbar/2
 output         energy unit                     : eV
 output          force unit                     : eV/A
 output       velocity unit                     : A/ps
 output       pressure unit                     : GPa
 output     inv_length unit                     : 1/A
 output      frequency unit                     : cm-1
 output force constant unit                     : eV/A**2
 output         volume unit                     : A**3
 output   IR intensity unit                     : (D/A)**2/amu
 output         dipole unit                     : D
 output         efield unit                     : eV/A/e
 output        entropy unit                     : J/mol/K
 output    efield chi2 unit                     : pm/V
  
 wavefunctions paging                           : none
 random number generator seed                   :  112300861
 data distribution                              : k-point only
 optimization strategy                          : maximize speed(+++)

 *********************** Exchange-Correlation Parameters ***********************
  
 using functional                               : Perdew Burke Ernzerhof
 relativistic treatment                         : Koelling-Harmon
 DFT+D: Semi-empirical dispersion correction    : off

 ************************* Pseudopotential Parameters **************************
  
 pseudopotential representation                 : reciprocal space
 <beta|phi> representation                      : reciprocal space
 spin-orbit coupling                            : off

 **************************** Basis Set Parameters *****************************
  
 plane wave basis set cut-off                   :   800.0000   eV
 size of standard grid                          :     2.0000
 size of   fine   gmax                          :    28.9810   1/A
 largest prime factor in FFT                    :          5
 finite basis set correction                    : automatic
 number of sample energies                      :          3
           sample  spacing                      :     5.0000   eV

 **************************** Electronic Parameters ****************************
  
 number of  electrons                           :  707.0    
 net charge of system                           :  0.000    
 treating system as non-spin-polarized
 number of bands                                :        389

 ********************* Electronic Minimization Parameters **********************
  
 Method: Treating system as metallic with density mixing treatment of electrons,
         and number of  SD  steps               :          1
         and number of  CG  steps               :          4
  
 total energy / atom convergence tol.           : 0.1000E-05   eV
 eigen-energy convergence tolerance             : 0.1645E-06   eV
 max force / atom convergence tol.              : ignored
 convergence tolerance window                   :          3   cycles
 max. number of SCF cycles                      :         30
 number of fixed-spin iterations                :         10
 smearing scheme                                : Gaussian
 smearing width                                 : 0.5000E-01   eV
 Fermi energy convergence tolerance             : 0.2721E-13   eV
 periodic dipole correction                     : NONE

 ************************** Density Mixing Parameters **************************
  
 density-mixing scheme                          : Pulay
 max. length of mixing history                  :         20
 charge density mixing amplitude                : 0.8000    
 cut-off energy for mixing                      :  800.0       eV
 charge density mixing g-vector                 :  1.500       1/A

 *********************** Population Analysis Parameters ************************
  
 Population analysis with cutoff                :  3.000       A
 Population analysis output                     : summary and pdos components

 ******************************* Developer Code ********************************
  
 PARALLEL: kpoint=18 : ENDPARALLEL
 no_improve_wvfn

 *******************************************************************************
  

                           -------------------------------
                                      Unit Cell
                           -------------------------------
        Real Lattice(A)                      Reciprocal Lattice(1/A)
    -6.4840660     6.4840660     6.4840660        0.000000000   0.484509666   0.484509666
     6.4840660    -6.4840660     6.4840660        0.484509666   0.000000000   0.484509666
     6.4840660     6.4840660    -6.4840660        0.484509666   0.484509666   0.000000000

                       Lattice parameters(A)       Cell Angles
                    a =     11.230732          alpha =  109.471221
                    b =     11.230732          beta  =  109.471221
                    c =     11.230732          gamma =  109.471221

                       Current cell volume =          1090.441249       A**3
                                   density =             2.680969   AMU/A**3
                                           =             4.451853     g/cm^3

                           -------------------------------
                                     Cell Contents
                           -------------------------------
                         Total number of ions in cell =   64
                      Total number of species in cell =    3
                        Max number of any one species =   55

            xxxxxxxxxxxxxxxxxxxxxxxxxxxxxxxxxxxxxxxxxxxxxxxxxxxxxxxxxxxx
            x  Element    Atom        Fractional coordinates of atoms  x
            x            Number           u          v          w      x
            x----------------------------------------------------------x
            x  Al           1         0.063507   0.058872   0.052208   x 
            x  Al           2        -0.010010   0.728766   0.727563   x 
            x  Al           3         0.234372  -0.026666  -0.033164   x 
            x  Al           4         0.297275   0.806746   0.291952   x 
            x  Al           5         0.447559   0.691118  -0.050925   x 
            x  Al           6         0.747059   0.016880   0.743606   x 
            x  Al           7         0.788928   0.310351   0.790113   x 
            x  Ti           1        -0.023924  -0.021956   0.224734   x 
            x  Ti           2         0.005620  -0.015273   0.500300   x 
            x  Ti           3         0.017883   0.018973   0.774397   x 
            x  Ti           4         0.003686   0.258951  -0.001552   x 
            x  Ti           5         0.032251   0.266651   0.265733   x 
            x  Ti           6        -0.050437   0.195313   0.448006   x 
            x  Ti           7        -0.026028   0.233264   0.720081   x 
            x  Ti           8         0.043196   0.545036   0.039860   x 
            x  Ti           9        -0.031660   0.478134   0.238692   x 
            x  Ti          10        -0.003823   0.483369   0.509639   x 
            x  Ti          11        -0.000747   0.769749   0.004973   x 
            x  Ti          12         0.030358   0.768228   0.267213   x 
            x  Ti          13        -0.038657   0.705438   0.460581   x 
            x  Ti          14         0.255386   0.024096   0.255235   x 
            x  Ti          15         0.281296   0.020694   0.522342   x 
            x  Ti          16         0.272819   0.264806   0.032745   x 
            x  Ti          17         0.301161   0.311460   0.305465   x 
            x  Ti          18         0.221721   0.231834   0.485689   x 
            x  Ti          19         0.244565   0.232827   0.749466   x 
            x  Ti          20         0.227749   0.467303  -0.035291   x 
            x  Ti          21         0.248594   0.521986   0.247805   x 
            x  Ti          22         0.272562   0.522797   0.514646   x 
            x  Ti          23         0.195314   0.453740   0.706553   x 
            x  Ti          24         0.254288   0.750016   0.012458   x 
            x  Ti          25         0.226721   0.736886   0.478040   x 
            x  Ti          26         0.251212   0.741057   0.743259   x 
            x  Ti          27         0.498337  -0.024077  -0.001185   x 
            x  Ti          28         0.522967   0.022005   0.284237   x 
            x  Ti          29         0.549983   0.053145   0.549580   x 
            x  Ti          30         0.467468  -0.022359   0.738170   x 
            x  Ti          31         0.445292   0.186066  -0.053896   x 
            x  Ti          32         0.482577   0.231365   0.225719   x 
            x  Ti          33         0.503977   0.267129   0.505667   x 
            x  Ti          34         0.523089   0.268200   0.771885   x 
            x  Ti          35         0.499815   0.481633  -0.000367   x 
            x  Ti          36         0.519862   0.527627   0.282199   x 
            x  Ti          37         0.545557   0.554320   0.552370   x 
            x  Ti          38         0.466318   0.477255   0.730897   x 
            x  Ti          39         0.480598   0.734596   0.220485   x 
            x  Ti          40         0.500588   0.762616   0.496938   x 
            x  Ti          41         0.528304   0.767679   0.769826   x 
            x  Ti          42         0.784455   0.024952   0.013983   x 
            x  Ti          43         0.699020  -0.057177   0.193902   x 
            x  Ti          44         0.737440  -0.024442   0.466915   x 
            x  Ti          45         0.723159   0.233898  -0.022204   x 
            x  Ti          46         0.748111   0.234726   0.248454   x 
            x  Ti          47         0.770345   0.270297   0.527161   x 
            x  Ti          48         0.779114   0.522354   0.020224   x 
            x  Ti          49         0.698741   0.446075   0.200727   x 
            x  Ti          50         0.730604   0.480106   0.475162   x 
            x  Ti          51         0.758886   0.530749   0.752483   x 
            x  Ti          52         0.716536   0.727214  -0.021300   x 
            x  Ti          53         0.753736   0.735280   0.254277   x 
            x  Ti          54         0.770254   0.765150   0.540594   x 
            x  Ti          55         0.804631   0.812818   0.807511   x 
            x  V            1         0.009368   0.509759   0.775876   x 
            x  V            2         0.201073  -0.050407   0.701296   x 
            xxxxxxxxxxxxxxxxxxxxxxxxxxxxxxxxxxxxxxxxxxxxxxxxxxxxxxxxxxxx


                         No user defined ionic velocities

                           -------------------------------
                                   Details of Species
                           -------------------------------

                               Mass of species in AMU
                                    Al   26.9815400
                                    Ti   47.8670000
                                    V   50.9415000

                          Electric Quadrupole Moment (Barn)
                                    Al    0.1466000 Isotope 27
                                    Ti    0.3020000 Isotope 47
                                    V   -0.0520000 Isotope 51

                          Files used for pseudopotentials:
                                    Al 3|2.2|2.2|1.4|4|5|5|30:31:32U2U2
                                    Ti 3|1.8|9|10|11|30U:40:31:32(qc=5.5)
                                    V 3|1.8|1.8|0.6|12|14|16|30U:40:31:32(qc=7)

                           -------------------------------
                              k-Points For BZ Sampling
                           -------------------------------
                       MP grid size for SCF calculation is  6  6  6
                            with an offset of   0.000  0.000  0.000
                       Number of kpoints used =           108

                           -------------------------------
                               Symmetry and Constraints
                           -------------------------------

                      Maximum deviation from symmetry =  0.00000         ANG

                      Number of symmetry operations   =           1
                      Number of ionic constraints     =           3
                      Point group of crystal =     1: C1, 1, 1
                      Space group of crystal =     1: P1, P 1

             Set iprint > 1 for details on symmetry rotations/translations

                         Centre of mass is constrained
             Set iprint > 1 for details of linear ionic constraints

                         Number of cell constraints= 0
                         Cell constraints are:  1 2 3 4 5 6

                         External pressure/stress (GPa)
                          0.00000   0.00000   0.00000
                                    0.00000   0.00000
                                              0.00000
 
+---------------- MEMORY AND SCRATCH DISK ESTIMATES PER PROCESS --------------+
|                                                     Memory          Disk    |
| Baseline code, static data and system overhead      591.0 MB         0.0 MB |
| BLAS internal memory storage                          0.0 MB         0.0 MB |
| Model and support data                              824.1 MB         0.0 MB |
| Electronic energy minimisation requirements         328.6 MB         0.0 MB |
| Force calculation requirements                       11.6 MB         0.0 MB |
| Stress calculation requirements                      12.8 MB         0.0 MB |
|                                               ----------------------------- |
| Approx. total storage required per process         1743.7 MB         0.0 MB |
|                                                                             |
| Requirements will fluctuate during execution and may exceed these estimates |
+-----------------------------------------------------------------------------+
Calculating finite basis set correction with  3 cut-off energies.
Calculating total energy with cut-off of  790.000 eV.
------------------------------------------------------------------------ <-- SCF
SCF loop      Energy           Fermi           Energy gain       Timer   <-- SCF
                               energy          per atom          (sec)   <-- SCF
------------------------------------------------------------------------ <-- SCF
Initial  -8.31697337E+004  0.00000000E+000                        30.17  <-- SCF
      1  -9.02155591E+004  1.17019409E+001   1.10091022E+002     182.63  <-- SCF
      2  -9.24617110E+004  9.01309851E+000   3.50961224E+001     306.29  <-- SCF
      3  -9.25907589E+004  8.82931833E+000   2.01637374E+000     432.09  <-- SCF
      4  -9.26104661E+004  8.02320698E+000   3.07924800E-001     583.17  <-- SCF
      5  -9.25966147E+004  8.22729606E+000  -2.16427134E-001     741.89  <-- SCF
      6  -9.25915063E+004  8.41192832E+000  -7.98187398E-002     891.29  <-- SCF
      7  -9.25889667E+004  8.43044032E+000  -3.96822075E-002    1045.05  <-- SCF
      8  -9.25890455E+004  8.39232697E+000   1.23223863E-003    1196.11  <-- SCF
      9  -9.25886929E+004  8.37022026E+000  -5.50921389E-003    1339.70  <-- SCF
     10  -9.25887442E+004  8.36117594E+000   8.00175588E-004    1492.94  <-- SCF
     11  -9.25886451E+004  8.35755135E+000  -1.54849115E-003    1634.12  <-- SCF
     12  -9.25886361E+004  8.35666006E+000  -1.39965098E-004    1783.88  <-- SCF
     13  -9.25886358E+004  8.35598115E+000  -5.16007662E-006    1925.25  <-- SCF
     14  -9.25886334E+004  8.35561256E+000  -3.62752413E-005    2050.36  <-- SCF
     15  -9.25886339E+004  8.35571187E+000   7.15814650E-006    2177.37  <-- SCF
     16  -9.25886335E+004  8.35578063E+000  -6.18340696E-006    2291.43  <-- SCF
     17  -9.25886335E+004  8.35576989E+000  -3.63106602E-008    2377.48  <-- SCF
     18  -9.25886335E+004  8.35579835E+000  -1.57216522E-007    2462.08  <-- SCF
------------------------------------------------------------------------ <-- SCF
 
Final energy, E             =  -92588.51916563     eV
Final free energy (E-TS)    =  -92588.63349390     eV
(energies not corrected for finite basis set)
 
NB est. 0K energy (E-0.5TS)      =  -92588.57632976     eV
 
Calculating total energy with cut-off of  795.000 eV.
------------------------------------------------------------------------ <-- SCF
SCF loop      Energy           Fermi           Energy gain       Timer   <-- SCF
                               energy          per atom          (sec)   <-- SCF
------------------------------------------------------------------------ <-- SCF
Initial  -9.25885191E+004  0.00000000E+000                      2487.62  <-- SCF
      1  -9.25886358E+004  8.35604420E+000   1.82286309E-003    2602.33  <-- SCF
      2  -9.25886360E+004  8.35604251E+000   4.37468562E-006    2723.71  <-- SCF
      3  -9.25886909E+004  8.35367733E+000   8.57183002E-004    2866.24  <-- SCF
      4  -9.25886348E+004  8.35622584E+000  -8.76019555E-004    3005.88  <-- SCF
      5  -9.25886344E+004  8.35588735E+000  -6.36772418E-006    3138.24  <-- SCF
      6  -9.25886346E+004  8.35586458E+000   3.15447079E-006    3256.55  <-- SCF
      7  -9.25886346E+004  8.35582834E+000  -1.08290064E-007    3343.69  <-- SCF
      8  -9.25886346E+004  8.35579453E+000  -8.37436945E-008    3426.55  <-- SCF
------------------------------------------------------------------------ <-- SCF
 
Final energy, E             =  -92588.52028786     eV
Final free energy (E-TS)    =  -92588.63461414     eV
(energies not corrected for finite basis set)
 
NB est. 0K energy (E-0.5TS)      =  -92588.57745100     eV
 
Calculating total energy with cut-off of  800.000 eV.
------------------------------------------------------------------------ <-- SCF
SCF loop      Energy           Fermi           Energy gain       Timer   <-- SCF
                               energy          per atom          (sec)   <-- SCF
------------------------------------------------------------------------ <-- SCF
Initial  -9.25885202E+004  0.00000000E+000                      3452.10  <-- SCF
      1  -9.25886367E+004  8.35567112E+000   1.81941023E-003    3560.05  <-- SCF
      2  -9.25886369E+004  8.35566956E+000   4.09265489E-006    3678.83  <-- SCF
      3  -9.25886719E+004  8.35629598E+000   5.45537763E-004    3824.09  <-- SCF
      4  -9.25886343E+004  8.35593384E+000  -5.86745629E-004    3964.32  <-- SCF
      5  -9.25886356E+004  8.35579629E+000   2.08648127E-005    4096.20  <-- SCF
      6  -9.25886357E+004  8.35580476E+000   1.22604912E-006    4203.70  <-- SCF
      7  -9.25886357E+004  8.35580119E+000  -4.67002240E-007    4290.86  <-- SCF
      8  -9.25886357E+004  8.35578401E+000  -3.09841016E-008    4373.34  <-- SCF
------------------------------------------------------------------------ <-- SCF
 
Final energy, E             =  -92588.52135614     eV
Final free energy (E-TS)    =  -92588.63568141     eV
(energies not corrected for finite basis set)
 
NB est. 0K energy (E-0.5TS)      =  -92588.57851878     eV
 
 For future reference: finite basis dEtot/dlog(Ecut) =      -0.174876eV
 Total energy corrected for finite basis set =  -92588.635691 eV

 ************************** Forces **************************
 *                                                          *
 *               Cartesian components (eV/A)                *
 * -------------------------------------------------------- *
 *                         x            y            z      *
 *                                                          *
 * Al              1      0.09123     -0.01522     -0.04917 *
 * Al              2      0.07788      0.11674     -0.01621 *
 * Al              3      0.07018      0.23771      0.05544 *
 * Al              4      0.04683     -0.09658      0.01324 *
 * Al              5     -0.03529     -0.04815      0.01991 *
 * Al              6      0.03237      0.15877     -0.01958 *
 * Al              7      0.02984      0.15789     -0.03459 *
 * Ti              1     -0.24379      0.15397      0.06359 *
 * Ti              2      0.05842      0.09283     -0.02057 *
 * Ti              3      0.16357     -0.01637     -0.04849 *
 * Ti              4     -0.10983     -0.00994     -0.12739 *
 * Ti              5      0.12054     -0.14772      0.02780 *
 * Ti              6     -0.12940     -0.15430     -0.07346 *
 * Ti              7     -0.02826      0.05107     -0.06569 *
 * Ti              8      0.09261      0.06961      0.08454 *
 * Ti              9      0.04944      0.00345     -0.08840 *
 * Ti             10      0.00644     -0.00284      0.05444 *
 * Ti             11      0.00437     -0.02089      0.16290 *
 * Ti             12      0.05868     -0.06243     -0.10058 *
 * Ti             13     -0.01173     -0.10510     -0.00963 *
 * Ti             14      0.11371     -0.10788      0.05980 *
 * Ti             15      0.10183     -0.11571      0.07195 *
 * Ti             16      0.12308     -0.09023      0.02932 *
 * Ti             17      0.12370      0.06503      0.17896 *
 * Ti             18     -0.07198      0.05780     -0.08779 *
 * Ti             19      0.06384      0.02125      0.13480 *
 * Ti             20     -0.00808     -0.10234      0.03424 *
 * Ti             21     -0.02577      0.02166      0.00782 *
 * Ti             22      0.11903     -0.01575      0.10292 *
 * Ti             23     -0.12337     -0.13727     -0.05496 *
 * Ti             24     -0.16885     -0.11746     -0.08182 *
 * Ti             25     -0.06610     -0.01381     -0.10239 *
 * Ti             26      0.10669      0.15202      0.06247 *
 * Ti             27     -0.17317     -0.03297      0.14117 *
 * Ti             28      0.05320     -0.09736      0.10052 *
 * Ti             29      0.11529     -0.03006      0.18619 *
 * Ti             30     -0.08826      0.01207     -0.09322 *
 * Ti             31     -0.07252     -0.09728     -0.08883 *
 * Ti             32      0.00526      0.09285     -0.03174 *
 * Ti             33     -0.07308      0.09682     -0.08008 *
 * Ti             34      0.02789     -0.05521      0.02845 *
 * Ti             35     -0.01109      0.04545     -0.07010 *
 * Ti             36      0.02324     -0.07235      0.02824 *
 * Ti             37      0.06247      0.10113      0.10986 *
 * Ti             38     -0.01097      0.06969     -0.02695 *
 * Ti             39      0.13563      0.01409     -0.04382 *
 * Ti             40     -0.07936     -0.01601      0.00696 *
 * Ti             41      0.26719     -0.08820      0.00266 *
 * Ti             42      0.10494     -0.02109     -0.06901 *
 * Ti             43     -0.02687     -0.01851     -0.07594 *
 * Ti             44     -0.00453      0.07067     -0.02347 *
 * Ti             45     -0.11746      0.05324      0.03935 *
 * Ti             46      0.06402      0.03555      0.05778 *
 * Ti             47     -0.06203     -0.03680     -0.03626 *
 * Ti             48      0.08430     -0.04663     -0.01573 *
 * Ti             49     -0.06900     -0.11266     -0.21310 *
 * Ti             50     -0.10718      0.10676     -0.10830 *
 * Ti             51     -0.08668      0.02890      0.06100 *
 * Ti             52     -0.11671      0.03564      0.02658 *
 * Ti             53      0.06123     -0.05580      0.01022 *
 * Ti             54     -0.06738     -0.08266      0.03358 *
 * Ti             55     -0.04817      0.00108      0.01560 *
 * V               1     -0.23576      0.07015     -0.08281 *
 * V               2     -0.18628      0.04973      0.02778 *
 *                                                          *
 ************************************************************

 ***************** Stress Tensor *****************
 *                                               *
 *          Cartesian components (GPa)           *
 * --------------------------------------------- *
 *             x             y             z     *
 *                                               *
 *  x      1.352755     -1.168311      0.123178  *
 *  y     -1.168311     -2.344953     -1.394797  *
 *  z      0.123178     -1.394797      1.013456  *
 *                                               *
 *  Pressure:   -0.0071                          *
 *                                               *
 *************************************************

 Pseudo atomic calculation performed for Al 3s2 3p1

 Converged in 15 iterations to a total energy of -107.1308 eV

 Pseudo atomic calculation performed for Ti 3s2 3p6 3d2 4s2

 Converged in 34 iterations to a total energy of -1587.0236 eV

 Pseudo atomic calculation performed for V 3s2 3p6 3d3 4s2

 Converged in 35 iterations to a total energy of -2065.7874 eV
Charge spilling parameter for spin component 1 = 0.08%

            Orbital Populations       
     Ion    Atom   Orbital             Charge
  -------------------------------------------
     Al     1      S                    0.962
     Al     1      Px                   0.677
     Al     1      Py                   0.714
     Al     1      Pz                   0.723
     Al     2      S                    0.942
     Al     2      Px                   0.675
     Al     2      Py                   0.683
     Al     2      Pz                   0.698
     Al     3      S                    0.960
     Al     3      Px                   0.668
     Al     3      Py                   0.688
     Al     3      Pz                   0.708
     Al     4      S                    0.959
     Al     4      Px                   0.713
     Al     4      Py                   0.692
     Al     4      Pz                   0.724
     Al     5      S                    0.960
     Al     5      Px                   0.711
     Al     5      Py                   0.701
     Al     5      Pz                   0.715
     Al     6      S                    0.948
     Al     6      Px                   0.671
     Al     6      Py                   0.699
     Al     6      Pz                   0.673
     Al     7      S                    0.971
     Al     7      Px                   0.699
     Al     7      Py                   0.691
     Al     7      Pz                   0.707
     Ti     1      S                    2.003
     Ti     1      Px                   2.005
     Ti     1      Py                   2.005
     Ti     1      Pz                   2.005
     Ti     1      S                    0.281
     Ti     1      Dzz                  0.508
     Ti     1      Dzy                  0.602
     Ti     1      Dzx                  0.520
     Ti     1      Dxx-yy               0.570
     Ti     1      Dxy                  0.522
     Ti     1      Px                   0.316
     Ti     1      Py                   0.328
     Ti     1      Pz                   0.296
     Ti     2      S                    2.002
     Ti     2      Px                   2.004
     Ti     2      Py                   2.005
     Ti     2      Pz                   2.004
     Ti     2      S                    0.301
     Ti     2      Dzz                  0.564
     Ti     2      Dzy                  0.530
     Ti     2      Dzx                  0.492
     Ti     2      Dxx-yy               0.546
     Ti     2      Dxy                  0.539
     Ti     2      Px                   0.344
     Ti     2      Py                   0.339
     Ti     2      Pz                   0.332
     Ti     3      S                    2.002
     Ti     3      Px                   2.004
     Ti     3      Py                   2.005
     Ti     3      Pz                   2.005
     Ti     3      S                    0.295
     Ti     3      Dzz                  0.632
     Ti     3      Dzy                  0.511
     Ti     3      Dzx                  0.498
     Ti     3      Dxx-yy               0.515
     Ti     3      Dxy                  0.572
     Ti     3      Px                   0.279
     Ti     3      Py                   0.270
     Ti     3      Pz                   0.293
     Ti     4      S                    2.001
     Ti     4      Px                   2.004
     Ti     4      Py                   2.004
     Ti     4      Pz                   2.004
     Ti     4      S                    0.303
     Ti     4      Dzz                  0.585
     Ti     4      Dzy                  0.533
     Ti     4      Dzx                  0.503
     Ti     4      Dxx-yy               0.505
     Ti     4      Dxy                  0.561
     Ti     4      Px                   0.318
     Ti     4      Py                   0.286
     Ti     4      Pz                   0.324
     Ti     5      S                    2.003
     Ti     5      Px                   2.006
     Ti     5      Py                   2.006
     Ti     5      Pz                   2.005
     Ti     5      S                    0.300
     Ti     5      Dzz                  0.513
     Ti     5      Dzy                  0.575
     Ti     5      Dzx                  0.560
     Ti     5      Dxx-yy               0.542
     Ti     5      Dxy                  0.546
     Ti     5      Px                   0.306
     Ti     5      Py                   0.322
     Ti     5      Pz                   0.328
     Ti     6      S                    2.005
     Ti     6      Px                   2.007
     Ti     6      Py                   2.007
     Ti     6      Pz                   2.007
     Ti     6      S                    0.308
     Ti     6      Dzz                  0.536
     Ti     6      Dzy                  0.565
     Ti     6      Dzx                  0.578
     Ti     6      Dxx-yy               0.520
     Ti     6      Dxy                  0.582
     Ti     6      Px                   0.324
     Ti     6      Py                   0.322
     Ti     6      Pz                   0.325
     Ti     7      S                    2.003
     Ti     7      Px                   2.005
     Ti     7      Py                   2.006
     Ti     7      Pz                   2.005
     Ti     7      S                    0.305
     Ti     7      Dzz                  0.530
     Ti     7      Dzy                  0.564
     Ti     7      Dzx                  0.517
     Ti     7      Dxx-yy               0.507
     Ti     7      Dxy                  0.611
     Ti     7      Px                   0.319
     Ti     7      Py                   0.329
     Ti     7      Pz                   0.297
     Ti     8      S                    2.003
     Ti     8      Px                   2.005
     Ti     8      Py                   2.006
     Ti     8      Pz                   2.005
     Ti     8      S                    0.300
     Ti     8      Dzz                  0.547
     Ti     8      Dzy                  0.543
     Ti     8      Dzx                  0.550
     Ti     8      Dxx-yy               0.533
     Ti     8      Dxy                  0.565
     Ti     8      Px                   0.347
     Ti     8      Py                   0.318
     Ti     8      Pz                   0.323
     Ti     9      S                    2.002
     Ti     9      Px                   2.004
     Ti     9      Py                   2.004
     Ti     9      Pz                   2.004
     Ti     9      S                    0.308
     Ti     9      Dzz                  0.507
     Ti     9      Dzy                  0.587
     Ti     9      Dzx                  0.510
     Ti     9      Dxx-yy               0.585
     Ti     9      Dxy                  0.482
     Ti     9      Px                   0.316
     Ti     9      Py                   0.338
     Ti     9      Pz                   0.322
     Ti    10      S                    2.002
     Ti    10      Px                   2.004
     Ti    10      Py                   2.005
     Ti    10      Pz                   2.005
     Ti    10      S                    0.300
     Ti    10      Dzz                  0.532
     Ti    10      Dzy                  0.590
     Ti    10      Dzx                  0.511
     Ti    10      Dxx-yy               0.506
     Ti    10      Dxy                  0.558
     Ti    10      Px                   0.305
     Ti    10      Py                   0.317
     Ti    10      Pz                   0.333
     Ti    11      S                    2.001
     Ti    11      Px                   2.004
     Ti    11      Py                   2.004
     Ti    11      Pz                   2.004
     Ti    11      S                    0.316
     Ti    11      Dzz                  0.539
     Ti    11      Dzy                  0.554
     Ti    11      Dzx                  0.483
     Ti    11      Dxx-yy               0.551
     Ti    11      Dxy                  0.559
     Ti    11      Px                   0.300
     Ti    11      Py                   0.312
     Ti    11      Pz                   0.275
     Ti    12      S                    2.003
     Ti    12      Px                   2.005
     Ti    12      Py                   2.006
     Ti    12      Pz                   2.005
     Ti    12      S                    0.297
     Ti    12      Dzz                  0.517
     Ti    12      Dzy                  0.580
     Ti    12      Dzx                  0.522
     Ti    12      Dxx-yy               0.587
     Ti    12      Dxy                  0.521
     Ti    12      Px                   0.327
     Ti    12      Py                   0.319
     Ti    12      Pz                   0.327
     Ti    13      S                    2.004
     Ti    13      Px                   2.006
     Ti    13      Py                   2.006
     Ti    13      Pz                   2.006
     Ti    13      S                    0.300
     Ti    13      Dzz                  0.518
     Ti    13      Dzy                  0.561
     Ti    13      Dzx                  0.581
     Ti    13      Dxx-yy               0.544
     Ti    13      Dxy                  0.556
     Ti    13      Px                   0.305
     Ti    13      Py                   0.311
     Ti    13      Pz                   0.340
     Ti    14      S                    2.001
     Ti    14      Px                   2.004
     Ti    14      Py                   2.005
     Ti    14      Pz                   2.004
     Ti    14      S                    0.310
     Ti    14      Dzz                  0.560
     Ti    14      Dzy                  0.554
     Ti    14      Dzx                  0.510
     Ti    14      Dxx-yy               0.564
     Ti    14      Dxy                  0.506
     Ti    14      Px                   0.309
     Ti    14      Py                   0.290
     Ti    14      Pz                   0.329
     Ti    15      S                    2.003
     Ti    15      Px                   2.006
     Ti    15      Py                   2.006
     Ti    15      Pz                   2.005
     Ti    15      S                    0.290
     Ti    15      Dzz                  0.518
     Ti    15      Dzy                  0.577
     Ti    15      Dzx                  0.550
     Ti    15      Dxx-yy               0.522
     Ti    15      Dxy                  0.557
     Ti    15      Px                   0.298
     Ti    15      Py                   0.326
     Ti    15      Pz                   0.328
     Ti    16      S                    2.003
     Ti    16      Px                   2.005
     Ti    16      Py                   2.006
     Ti    16      Pz                   2.006
     Ti    16      S                    0.302
     Ti    16      Dzz                  0.560
     Ti    16      Dzy                  0.551
     Ti    16      Dzx                  0.519
     Ti    16      Dxx-yy               0.520
     Ti    16      Dxy                  0.595
     Ti    16      Px                   0.310
     Ti    16      Py                   0.329
     Ti    16      Pz                   0.295
     Ti    17      S                    2.005
     Ti    17      Px                   2.008
     Ti    17      Py                   2.007
     Ti    17      Pz                   2.007
     Ti    17      S                    0.313
     Ti    17      Dzz                  0.543
     Ti    17      Dzy                  0.547
     Ti    17      Dzx                  0.565
     Ti    17      Dxx-yy               0.544
     Ti    17      Dxy                  0.564
     Ti    17      Px                   0.309
     Ti    17      Py                   0.326
     Ti    17      Pz                   0.326
     Ti    18      S                    2.003
     Ti    18      Px                   2.005
     Ti    18      Py                   2.005
     Ti    18      Pz                   2.005
     Ti    18      S                    0.289
     Ti    18      Dzz                  0.520
     Ti    18      Dzy                  0.598
     Ti    18      Dzx                  0.505
     Ti    18      Dxx-yy               0.568
     Ti    18      Dxy                  0.510
     Ti    18      Px                   0.334
     Ti    18      Py                   0.335
     Ti    18      Pz                   0.324
     Ti    19      S                    2.001
     Ti    19      Px                   2.004
     Ti    19      Py                   2.004
     Ti    19      Pz                   2.004
     Ti    19      S                    0.295
     Ti    19      Dzz                  0.561
     Ti    19      Dzy                  0.525
     Ti    19      Dzx                  0.472
     Ti    19      Dxx-yy               0.539
     Ti    19      Dxy                  0.547
     Ti    19      Px                   0.334
     Ti    19      Py                   0.339
     Ti    19      Pz                   0.324
     Ti    20      S                    2.002
     Ti    20      Px                   2.005
     Ti    20      Py                   2.005
     Ti    20      Pz                   2.005
     Ti    20      S                    0.313
     Ti    20      Dzz                  0.552
     Ti    20      Dzy                  0.490
     Ti    20      Dzx                  0.536
     Ti    20      Dxx-yy               0.533
     Ti    20      Dxy                  0.572
     Ti    20      Px                   0.320
     Ti    20      Py                   0.358
     Ti    20      Pz                   0.305
     Ti    21      S                    2.001
     Ti    21      Px                   2.004
     Ti    21      Py                   2.004
     Ti    21      Pz                   2.004
     Ti    21      S                    0.304
     Ti    21      Dzz                  0.561
     Ti    21      Dzy                  0.538
     Ti    21      Dzx                  0.473
     Ti    21      Dxx-yy               0.547
     Ti    21      Dxy                  0.554
     Ti    21      Px                   0.321
     Ti    21      Py                   0.322
     Ti    21      Pz                   0.324
     Ti    22      S                    2.002
     Ti    22      Px                   2.005
     Ti    22      Py                   2.004
     Ti    22      Pz                   2.004
     Ti    22      S                    0.287
     Ti    22      Dzz                  0.527
     Ti    22      Dzy                  0.573
     Ti    22      Dzx                  0.501
     Ti    22      Dxx-yy               0.588
     Ti    22      Dxy                  0.497
     Ti    22      Px                   0.334
     Ti    22      Py                   0.331
     Ti    22      Pz                   0.324
     Ti    23      S                    2.004
     Ti    23      Px                   2.006
     Ti    23      Py                   2.007
     Ti    23      Pz                   2.006
     Ti    23      S                    0.301
     Ti    23      Dzz                  0.522
     Ti    23      Dzy                  0.584
     Ti    23      Dzx                  0.543
     Ti    23      Dxx-yy               0.544
     Ti    23      Dxy                  0.561
     Ti    23      Px                   0.334
     Ti    23      Py                   0.299
     Ti    23      Pz                   0.342
     Ti    24      S                    2.002
     Ti    24      Px                   2.004
     Ti    24      Py                   2.005
     Ti    24      Pz                   2.005
     Ti    24      S                    0.298
     Ti    24      Dzz                  0.578
     Ti    24      Dzy                  0.539
     Ti    24      Dzx                  0.534
     Ti    24      Dxx-yy               0.467
     Ti    24      Dxy                  0.603
     Ti    24      Px                   0.298
     Ti    24      Py                   0.274
     Ti    24      Pz                   0.317
     Ti    25      S                    2.003
     Ti    25      Px                   2.006
     Ti    25      Py                   2.006
     Ti    25      Pz                   2.005
     Ti    25      S                    0.287
     Ti    25      Dzz                  0.521
     Ti    25      Dzy                  0.600
     Ti    25      Dzx                  0.514
     Ti    25      Dxx-yy               0.558
     Ti    25      Dxy                  0.535
     Ti    25      Px                   0.336
     Ti    25      Py                   0.321
     Ti    25      Pz                   0.304
     Ti    26      S                    2.002
     Ti    26      Px                   2.004
     Ti    26      Py                   2.005
     Ti    26      Pz                   2.004
     Ti    26      S                    0.306
     Ti    26      Dzz                  0.549
     Ti    26      Dzy                  0.560
     Ti    26      Dzx                  0.502
     Ti    26      Dxx-yy               0.514
     Ti    26      Dxy                  0.561
     Ti    26      Px                   0.292
     Ti    26      Py                   0.310
     Ti    26      Pz                   0.336
     Ti    27      S                    2.002
     Ti    27      Px                   2.005
     Ti    27      Py                   2.005
     Ti    27      Pz                   2.004
     Ti    27      S                    0.305
     Ti    27      Dzz                  0.573
     Ti    27      Dzy                  0.564
     Ti    27      Dzx                  0.447
     Ti    27      Dxx-yy               0.556
     Ti    27      Dxy                  0.563
     Ti    27      Px                   0.315
     Ti    27      Py                   0.301
     Ti    27      Pz                   0.319
     Ti    28      S                    2.003
     Ti    28      Px                   2.005
     Ti    28      Py                   2.005
     Ti    28      Pz                   2.006
     Ti    28      S                    0.305
     Ti    28      Dzz                  0.550
     Ti    28      Dzy                  0.531
     Ti    28      Dzx                  0.530
     Ti    28      Dxx-yy               0.478
     Ti    28      Dxy                  0.616
     Ti    28      Px                   0.319
     Ti    28      Py                   0.295
     Ti    28      Pz                   0.307
     Ti    29      S                    2.003
     Ti    29      Px                   2.006
     Ti    29      Py                   2.006
     Ti    29      Pz                   2.006
     Ti    29      S                    0.309
     Ti    29      Dzz                  0.543
     Ti    29      Dzy                  0.555
     Ti    29      Dzx                  0.574
     Ti    29      Dxx-yy               0.540
     Ti    29      Dxy                  0.551
     Ti    29      Px                   0.328
     Ti    29      Py                   0.303
     Ti    29      Pz                   0.330
     Ti    30      S                    2.002
     Ti    30      Px                   2.005
     Ti    30      Py                   2.005
     Ti    30      Pz                   2.005
     Ti    30      S                    0.310
     Ti    30      Dzz                  0.537
     Ti    30      Dzy                  0.568
     Ti    30      Dzx                  0.501
     Ti    30      Dxx-yy               0.575
     Ti    30      Dxy                  0.504
     Ti    30      Px                   0.328
     Ti    30      Py                   0.329
     Ti    30      Pz                   0.297
     Ti    31      S                    2.005
     Ti    31      Px                   2.008
     Ti    31      Py                   2.007
     Ti    31      Pz                   2.008
     Ti    31      S                    0.308
     Ti    31      Dzz                  0.496
     Ti    31      Dzy                  0.591
     Ti    31      Dzx                  0.586
     Ti    31      Dxx-yy               0.531
     Ti    31      Dxy                  0.579
     Ti    31      Px                   0.325
     Ti    31      Py                   0.335
     Ti    31      Pz                   0.280
     Ti    32      S                    2.002
     Ti    32      Px                   2.005
     Ti    32      Py                   2.005
     Ti    32      Pz                   2.005
     Ti    32      S                    0.309
     Ti    32      Dzz                  0.589
     Ti    32      Dzy                  0.503
     Ti    32      Dzx                  0.521
     Ti    32      Dxx-yy               0.502
     Ti    32      Dxy                  0.598
     Ti    32      Px                   0.320
     Ti    32      Py                   0.316
     Ti    32      Pz                   0.319
     Ti    33      S                    2.001
     Ti    33      Px                   2.004
     Ti    33      Py                   2.004
     Ti    33      Pz                   2.004
     Ti    33      S                    0.296
     Ti    33      Dzz                  0.557
     Ti    33      Dzy                  0.551
     Ti    33      Dzx                  0.461
     Ti    33      Dxx-yy               0.531
     Ti    33      Dxy                  0.548
     Ti    33      Px                   0.334
     Ti    33      Py                   0.316
     Ti    33      Pz                   0.342
     Ti    34      S                    2.003
     Ti    34      Px                   2.006
     Ti    34      Py                   2.006
     Ti    34      Pz                   2.005
     Ti    34      S                    0.287
     Ti    34      Dzz                  0.515
     Ti    34      Dzy                  0.571
     Ti    34      Dzx                  0.534
     Ti    34      Dxx-yy               0.584
     Ti    34      Dxy                  0.525
     Ti    34      Px                   0.327
     Ti    34      Py                   0.330
     Ti    34      Pz                   0.316
     Ti    35      S                    2.001
     Ti    35      Px                   2.004
     Ti    35      Py                   2.005
     Ti    35      Pz                   2.004
     Ti    35      S                    0.305
     Ti    35      Dzz                  0.563
     Ti    35      Dzy                  0.536
     Ti    35      Dzx                  0.482
     Ti    35      Dxx-yy               0.554
     Ti    35      Dxy                  0.538
     Ti    35      Px                   0.333
     Ti    35      Py                   0.306
     Ti    35      Pz                   0.336
     Ti    36      S                    2.002
     Ti    36      Px                   2.005
     Ti    36      Py                   2.004
     Ti    36      Pz                   2.005
     Ti    36      S                    0.289
     Ti    36      Dzz                  0.586
     Ti    36      Dzy                  0.506
     Ti    36      Dzx                  0.505
     Ti    36      Dxx-yy               0.509
     Ti    36      Dxy                  0.593
     Ti    36      Px                   0.330
     Ti    36      Py                   0.340
     Ti    36      Pz                   0.331
     Ti    37      S                    2.005
     Ti    37      Px                   2.007
     Ti    37      Py                   2.007
     Ti    37      Pz                   2.008
     Ti    37      S                    0.316
     Ti    37      Dzz                  0.521
     Ti    37      Dzy                  0.576
     Ti    37      Dzx                  0.578
     Ti    37      Dxx-yy               0.524
     Ti    37      Dxy                  0.571
     Ti    37      Px                   0.327
     Ti    37      Py                   0.327
     Ti    37      Pz                   0.332
     Ti    38      S                    2.003
     Ti    38      Px                   2.006
     Ti    38      Py                   2.005
     Ti    38      Pz                   2.005
     Ti    38      S                    0.291
     Ti    38      Dzz                  0.502
     Ti    38      Dzy                  0.597
     Ti    38      Dzx                  0.546
     Ti    38      Dxx-yy               0.551
     Ti    38      Dxy                  0.524
     Ti    38      Px                   0.300
     Ti    38      Py                   0.335
     Ti    38      Pz                   0.321
     Ti    39      S                    2.003
     Ti    39      Px                   2.005
     Ti    39      Py                   2.005
     Ti    39      Pz                   2.005
     Ti    39      S                    0.300
     Ti    39      Dzz                  0.573
     Ti    39      Dzy                  0.537
     Ti    39      Dzx                  0.534
     Ti    39      Dxx-yy               0.510
     Ti    39      Dxy                  0.575
     Ti    39      Px                   0.294
     Ti    39      Py                   0.325
     Ti    39      Pz                   0.335
     Ti    40      S                    2.001
     Ti    40      Px                   2.004
     Ti    40      Py                   2.004
     Ti    40      Pz                   2.004
     Ti    40      S                    0.307
     Ti    40      Dzz                  0.570
     Ti    40      Dzy                  0.557
     Ti    40      Dzx                  0.454
     Ti    40      Dxx-yy               0.538
     Ti    40      Dxy                  0.559
     Ti    40      Px                   0.326
     Ti    40      Py                   0.300
     Ti    40      Pz                   0.330
     Ti    41      S                    2.003
     Ti    41      Px                   2.006
     Ti    41      Py                   2.005
     Ti    41      Pz                   2.005
     Ti    41      S                    0.303
     Ti    41      Dzz                  0.481
     Ti    41      Dzy                  0.622
     Ti    41      Dzx                  0.527
     Ti    41      Dxx-yy               0.575
     Ti    41      Dxy                  0.527
     Ti    41      Px                   0.323
     Ti    41      Py                   0.326
     Ti    41      Pz                   0.269
     Ti    42      S                    2.002
     Ti    42      Px                   2.005
     Ti    42      Py                   2.005
     Ti    42      Pz                   2.005
     Ti    42      S                    0.312
     Ti    42      Dzz                  0.533
     Ti    42      Dzy                  0.566
     Ti    42      Dzx                  0.519
     Ti    42      Dxx-yy               0.616
     Ti    42      Dxy                  0.478
     Ti    42      Px                   0.299
     Ti    42      Py                   0.307
     Ti    42      Pz                   0.314
     Ti    43      S                    2.004
     Ti    43      Px                   2.007
     Ti    43      Py                   2.006
     Ti    43      Pz                   2.006
     Ti    43      S                    0.318
     Ti    43      Dzz                  0.532
     Ti    43      Dzy                  0.568
     Ti    43      Dzx                  0.565
     Ti    43      Dxx-yy               0.523
     Ti    43      Dxy                  0.585
     Ti    43      Px                   0.329
     Ti    43      Py                   0.328
     Ti    43      Pz                   0.337
     Ti    44      S                    2.002
     Ti    44      Px                   2.005
     Ti    44      Py                   2.005
     Ti    44      Pz                   2.005
     Ti    44      S                    0.317
     Ti    44      Dzz                  0.586
     Ti    44      Dzy                  0.485
     Ti    44      Dzx                  0.500
     Ti    44      Dxx-yy               0.535
     Ti    44      Dxy                  0.582
     Ti    44      Px                   0.294
     Ti    44      Py                   0.322
     Ti    44      Pz                   0.334
     Ti    45      S                    2.002
     Ti    45      Px                   2.004
     Ti    45      Py                   2.005
     Ti    45      Pz                   2.004
     Ti    45      S                    0.302
     Ti    45      Dzz                  0.513
     Ti    45      Dzy                  0.596
     Ti    45      Dzx                  0.520
     Ti    45      Dxx-yy               0.531
     Ti    45      Dxy                  0.559
     Ti    45      Px                   0.295
     Ti    45      Py                   0.328
     Ti    45      Pz                   0.313
     Ti    46      S                    2.001
     Ti    46      Px                   2.003
     Ti    46      Py                   2.004
     Ti    46      Pz                   2.004
     Ti    46      S                    0.303
     Ti    46      Dzz                  0.584
     Ti    46      Dzy                  0.515
     Ti    46      Dzx                  0.480
     Ti    46      Dxx-yy               0.538
     Ti    46      Dxy                  0.540
     Ti    46      Px                   0.337
     Ti    46      Py                   0.336
     Ti    46      Pz                   0.335
     Ti    47      S                    2.004
     Ti    47      Px                   2.006
     Ti    47      Py                   2.006
     Ti    47      Pz                   2.006
     Ti    47      S                    0.274
     Ti    47      Dzz                  0.573
     Ti    47      Dzy                  0.526
     Ti    47      Dzx                  0.539
     Ti    47      Dxx-yy               0.511
     Ti    47      Dxy                  0.571
     Ti    47      Px                   0.310
     Ti    47      Py                   0.329
     Ti    47      Pz                   0.326
     Ti    48      S                    2.003
     Ti    48      Px                   2.006
     Ti    48      Py                   2.005
     Ti    48      Pz                   2.005
     Ti    48      S                    0.296
     Ti    48      Dzz                  0.501
     Ti    48      Dzy                  0.602
     Ti    48      Dzx                  0.555
     Ti    48      Dxx-yy               0.539
     Ti    48      Dxy                  0.524
     Ti    48      Px                   0.300
     Ti    48      Py                   0.334
     Ti    48      Pz                   0.329
     Ti    49      S                    2.004
     Ti    49      Px                   2.006
     Ti    49      Py                   2.006
     Ti    49      Pz                   2.006
     Ti    49      S                    0.305
     Ti    49      Dzz                  0.529
     Ti    49      Dzy                  0.570
     Ti    49      Dzx                  0.562
     Ti    49      Dxx-yy               0.533
     Ti    49      Dxy                  0.563
     Ti    49      Px                   0.338
     Ti    49      Py                   0.320
     Ti    49      Pz                   0.339
     Ti    50      S                    2.003
     Ti    50      Px                   2.005
     Ti    50      Py                   2.005
     Ti    50      Pz                   2.006
     Ti    50      S                    0.300
     Ti    50      Dzz                  0.605
     Ti    50      Dzy                  0.485
     Ti    50      Dzx                  0.498
     Ti    50      Dxx-yy               0.522
     Ti    50      Dxy                  0.616
     Ti    50      Px                   0.313
     Ti    50      Py                   0.327
     Ti    50      Pz                   0.311
     Ti    51      S                    2.002
     Ti    51      Px                   2.005
     Ti    51      Py                   2.005
     Ti    51      Pz                   2.004
     Ti    51      S                    0.305
     Ti    51      Dzz                  0.518
     Ti    51      Dzy                  0.533
     Ti    51      Dzx                  0.523
     Ti    51      Dxx-yy               0.541
     Ti    51      Dxy                  0.579
     Ti    51      Px                   0.332
     Ti    51      Py                   0.318
     Ti    51      Pz                   0.284
     Ti    52      S                    2.003
     Ti    52      Px                   2.005
     Ti    52      Py                   2.005
     Ti    52      Pz                   2.005
     Ti    52      S                    0.292
     Ti    52      Dzz                  0.521
     Ti    52      Dzy                  0.580
     Ti    52      Dzx                  0.534
     Ti    52      Dxx-yy               0.589
     Ti    52      Dxy                  0.488
     Ti    52      Px                   0.318
     Ti    52      Py                   0.332
     Ti    52      Pz                   0.318
     Ti    53      S                    2.001
     Ti    53      Px                   2.004
     Ti    53      Py                   2.004
     Ti    53      Pz                   2.003
     Ti    53      S                    0.311
     Ti    53      Dzz                  0.566
     Ti    53      Dzy                  0.546
     Ti    53      Dzx                  0.463
     Ti    53      Dxx-yy               0.536
     Ti    53      Dxy                  0.548
     Ti    53      Px                   0.332
     Ti    53      Py                   0.310
     Ti    53      Pz                   0.333
     Ti    54      S                    2.003
     Ti    54      Px                   2.005
     Ti    54      Py                   2.006
     Ti    54      Pz                   2.006
     Ti    54      S                    0.315
     Ti    54      Dzz                  0.562
     Ti    54      Dzy                  0.509
     Ti    54      Dzx                  0.549
     Ti    54      Dxx-yy               0.464
     Ti    54      Dxy                  0.659
     Ti    54      Px                   0.285
     Ti    54      Py                   0.292
     Ti    54      Pz                   0.327
     Ti    55      S                    2.004
     Ti    55      Px                   2.007
     Ti    55      Py                   2.006
     Ti    55      Pz                   2.007
     Ti    55      S                    0.313
     Ti    55      Dzz                  0.544
     Ti    55      Dzy                  0.567
     Ti    55      Dzx                  0.566
     Ti    55      Dxx-yy               0.522
     Ti    55      Dxy                  0.580
     Ti    55      Px                   0.289
     Ti    55      Py                   0.302
     Ti    55      Pz                   0.317
      V     1      S                    2.002
      V     1      Px                   2.004
      V     1      Py                   2.004
      V     1      Pz                   2.004
      V     1      Dzz                  0.650
      V     1      Dzy                  0.765
      V     1      Dzx                  0.871
      V     1      Dxx-yy               0.630
      V     1      Dxy                  0.840
      V     1      S                    0.333
      V     1      Px                   0.316
      V     1      Py                   0.327
      V     1      Pz                   0.294
      V     2      S                    2.002
      V     2      Px                   2.004
      V     2      Py                   2.005
      V     2      Pz                   2.004
      V     2      Dzz                  0.623
      V     2      Dzy                  0.841
      V     2      Dzx                  0.838
      V     2      Dxx-yy               0.690
      V     2      Dxy                  0.795
      V     2      S                    0.380
      V     2      Px                   0.336
      V     2      Py                   0.322
      V     2      Pz                   0.309
  -------------------------------------------
                           Total:     706.999
  -------------------------------------------

     Atomic Populations (Mulliken)
     -----------------------------
Species          Ion     s       p       d       f      Total   Charge (e)
==========================================================================
  Al              1     0.962   2.114   0.000   0.000   3.077    -0.077
  Al              2     0.942   2.055   0.000   0.000   2.996     0.004
  Al              3     0.960   2.064   0.000   0.000   3.024    -0.024
  Al              4     0.959   2.129   0.000   0.000   3.088    -0.088
  Al              5     0.960   2.127   0.000   0.000   3.087    -0.087
  Al              6     0.948   2.043   0.000   0.000   2.991     0.009
  Al              7     0.971   2.097   0.000   0.000   3.069    -0.069
  Ti              1     2.283   6.956   2.722   0.000  11.961     0.039
  Ti              2     2.303   7.027   2.672   0.000  12.001    -0.001
  Ti              3     2.297   6.856   2.728   0.000  11.881     0.119
  Ti              4     2.304   6.940   2.686   0.000  11.930     0.070
  Ti              5     2.303   6.972   2.736   0.000  12.011    -0.011
  Ti              6     2.313   6.992   2.781   0.000  12.086    -0.086
  Ti              7     2.308   6.962   2.729   0.000  11.999     0.001
  Ti              8     2.302   7.005   2.738   0.000  12.046    -0.046
  Ti              9     2.310   6.988   2.671   0.000  11.969     0.031
  Ti             10     2.302   6.970   2.697   0.000  11.969     0.031
  Ti             11     2.317   6.900   2.687   0.000  11.904     0.096
  Ti             12     2.300   6.989   2.727   0.000  12.016    -0.016
  Ti             13     2.304   6.975   2.760   0.000  12.039    -0.039
  Ti             14     2.312   6.941   2.694   0.000  11.947     0.053
  Ti             15     2.293   6.969   2.723   0.000  11.985     0.015
  Ti             16     2.305   6.951   2.745   0.000  12.001    -0.001
  Ti             17     2.318   6.981   2.764   0.000  12.062    -0.062
  Ti             18     2.292   7.008   2.701   0.000  12.000    -0.000
  Ti             19     2.296   7.009   2.643   0.000  11.948     0.052
  Ti             20     2.315   6.998   2.682   0.000  11.995     0.005
  Ti             21     2.305   6.979   2.672   0.000  11.956     0.044
  Ti             22     2.289   7.003   2.687   0.000  11.978     0.022
  Ti             23     2.304   6.995   2.754   0.000  12.053    -0.053
  Ti             24     2.300   6.902   2.722   0.000  11.924     0.076
  Ti             25     2.290   6.978   2.728   0.000  11.996     0.004
  Ti             26     2.308   6.951   2.686   0.000  11.945     0.055
  Ti             27     2.307   6.949   2.703   0.000  11.959     0.041
  Ti             28     2.308   6.936   2.706   0.000  11.950     0.050
  Ti             29     2.311   6.979   2.762   0.000  12.052    -0.052
  Ti             30     2.312   6.969   2.684   0.000  11.966     0.034
  Ti             31     2.313   6.961   2.782   0.000  12.057    -0.057
  Ti             32     2.311   6.969   2.714   0.000  11.994     0.006
  Ti             33     2.297   7.003   2.648   0.000  11.948     0.052
  Ti             34     2.290   6.990   2.729   0.000  12.009    -0.009
  Ti             35     2.306   6.987   2.672   0.000  11.965     0.035
  Ti             36     2.291   7.014   2.699   0.000  12.004    -0.004
  Ti             37     2.321   7.008   2.770   0.000  12.099    -0.099
  Ti             38     2.294   6.971   2.720   0.000  11.986     0.014
  Ti             39     2.303   6.970   2.729   0.000  12.002    -0.002
  Ti             40     2.308   6.968   2.678   0.000  11.955     0.045
  Ti             41     2.306   6.935   2.732   0.000  11.973     0.027
  Ti             42     2.315   6.934   2.712   0.000  11.960     0.040
  Ti             43     2.322   7.014   2.773   0.000  12.109    -0.109
  Ti             44     2.319   6.965   2.689   0.000  11.973     0.027
  Ti             45     2.304   6.949   2.719   0.000  11.973     0.027
  Ti             46     2.304   7.019   2.657   0.000  11.981     0.019
  Ti             47     2.277   6.983   2.720   0.000  11.980     0.020
  Ti             48     2.299   6.978   2.721   0.000  11.998     0.002
  Ti             49     2.310   7.015   2.758   0.000  12.083    -0.083
  Ti             50     2.303   6.967   2.726   0.000  11.997     0.003
  Ti             51     2.307   6.948   2.694   0.000  11.949     0.051
  Ti             52     2.295   6.985   2.711   0.000  11.991     0.009
  Ti             53     2.313   6.987   2.659   0.000  11.958     0.042
  Ti             54     2.319   6.921   2.742   0.000  11.982     0.018
  Ti             55     2.317   6.929   2.778   0.000  12.024    -0.024
  V               1     2.335   6.948   3.756   0.000  13.039    -0.039
  V               2     2.383   6.979   3.787   0.000  13.149    -0.149
==========================================================================

                 Bond                   Population      Length (A)
======================================================================
             Ti 23 -- V 1                    0.18        2.64504
             Ti 31 -- Ti 34                  0.18        2.69224
             Ti 3  -- V 2                    0.25        2.69854
             Ti 15 -- V 2                    0.21        2.69926
             Ti 16 -- Ti 31                  0.16        2.70288
             Ti 24 -- V 1                    0.23        2.70305
              Al 4 -- Ti 39                  0.27        2.70554
              Al 5 -- Ti 24                  0.27        2.70721
             Ti 13 -- V 2                    0.12        2.71293
              Al 1 -- Al 3                   0.31        2.71403
             Ti 6  -- Ti 47                  0.13        2.71558
             Ti 31 -- V 2                    0.09        2.71730
              Al 1 -- Ti 1                   0.26        2.71830
              Al 4 -- Ti 25                  0.28        2.71915
             Ti 37 -- Ti 38                  0.17        2.71918
             Ti 47 -- V 1                    0.15        2.72418
              Al 2 -- Al 3                   0.31        2.72672
             Ti 54 -- Ti 55                  0.13        2.72809
             Ti 8  -- V 1                    0.16        2.73069
             Ti 26 -- V 2                    0.24        2.73172
              Al 5 -- Ti 41                  0.27        2.73228
             Ti 52 -- Ti 55                  0.17        2.73234
              Al 1 -- Ti 4                   0.30        2.73962
             Ti 5  -- Ti 17                  0.19        2.74076
             Ti 48 -- Ti 49                  0.17        2.74230
              Al 7 -- Ti 7                   0.29        2.74265
             Ti 11 -- Ti 51                  0.21        2.74315
             Ti 20 -- Ti 23                  0.20        2.74340
              Al 5 -- Ti 23                  0.20        2.74434
             Ti 47 -- Ti 50                  0.22        2.74539
              Al 7 -- Ti 45                  0.33        2.74725
             Ti 7  -- Ti 20                  0.13        2.74794
             Ti 17 -- Ti 37                  0.13        2.74864
             Ti 22 -- Ti 25                  0.23        2.74922
              Al 2 -- V 1                    0.33        2.74942
             Ti 5  -- Ti 6                   0.19        2.74944
             Ti 17 -- Ti 18                  0.19        2.75156
             Ti 18 -- Ti 38                  0.16        2.75239
              Al 7 -- Ti 51                  0.24        2.75287
             Ti 48 -- Ti 52                  0.25        2.75309
             Ti 12 -- Ti 13                  0.17        2.75552
             Ti 36 -- Ti 49                  0.15        2.75777
             Ti 2  -- Ti 19                  0.23        2.75799
              Al 7 -- Ti 47                  0.24        2.75824
             Ti 3  -- Ti 54                  0.09        2.75889
             Ti 30 -- Ti 41                  0.22        2.76125
             Ti 36 -- Ti 39                  0.25        2.76248
             Ti 28 -- Ti 43                  0.15        2.76359
             Ti 37 -- Ti 50                  0.18        2.76402
              Al 7 -- Ti 29                  0.28        2.76407
             Ti 28 -- Ti 47                  0.12        2.76549
             Ti 8  -- Ti 20                  0.18        2.76617
             Ti 34 -- Ti 38                  0.27        2.76651
             Ti 15 -- Ti 34                  0.10        2.76689
              Al 4 -- Ti 14                  0.28        2.76715
             Ti 26 -- Ti 27                  0.19        2.76765
             Ti 17 -- Ti 32                  0.21        2.76832
             Ti 37 -- Ti 40                  0.23        2.76838
             Ti 1  -- Ti 12                  0.23        2.76858
             Ti 42 -- Ti 45                  0.23        2.76982
             Ti 16 -- Ti 20                  0.23        2.77129
             Ti 30 -- V 2                    0.21        2.77136
              Al 7 -- Ti 8                   0.23        2.77177
             Ti 10 -- Ti 23                  0.06        2.77355
             Ti 13 -- Ti 54                  0.17        2.77600
             Ti 28 -- Ti 32                  0.24        2.77643
             Ti 5  -- Ti 42                  0.18        2.77646
             Ti 5  -- Ti 9                   0.27        2.77860
             Ti 14 -- Ti 33                  0.23        2.77884
             Ti 21 -- Ti 40                  0.21        2.77894
             Ti 28 -- Ti 29                  0.11        2.77965
             Ti 29 -- Ti 33                  0.18        2.78093
             Ti 25 -- Ti 30                  0.18        2.78393
              Al 4 -- Ti 12                  0.27        2.78397
             Ti 46 -- Ti 49                  0.23        2.78499
              Al 3 -- Ti 24                  0.38        2.78514
             Ti 12 -- Ti 48                  0.13        2.78611
              Al 3 -- V 2                    0.26        2.78647
             Ti 15 -- Ti 18                  0.23        2.78654
              Al 7 -- Ti 34                  0.28        2.78663
              Al 1 -- Ti 17                  0.18        2.78804
             Ti 39 -- Ti 44                  0.17        2.79002
             Ti 9  -- Ti 49                  0.20        2.79091
              Al 6 -- Ti 29                  0.26        2.79110
              Al 5 -- Ti 35                  0.26        2.79120
             Ti 42 -- Ti 43                  0.18        2.79273
              Al 5 -- Ti 39                  0.27        2.79288
             Ti 32 -- Ti 50                  0.17        2.79353
             Ti 5  -- Ti 22                  0.17        2.79413
              Al 5 -- Ti 52                  0.26        2.79714
             Ti 27 -- Ti 43                  0.21        2.79781
             Ti 2  -- Ti 53                  0.25        2.79830
              Al 6 -- Ti 40                  0.30        2.79915
             Ti 38 -- Ti 52                  0.11        2.80023
             Ti 36 -- Ti 54                  0.12        2.80054
              Al 5 -- Ti 43                  0.20        2.80108
             Ti 10 -- Ti 26                  0.19        2.80446
             Ti 7  -- Ti 44                  0.19        2.80542
              Al 1 -- Ti 14                  0.23        2.80614
             Ti 6  -- Ti 18                  0.20        2.80640
              Al 1 -- Ti 55                  0.22        2.80995
             Ti 7  -- V 1                    0.17        2.81194
             Ti 13 -- Ti 25                  0.12        2.81219
             Ti 27 -- Ti 31                  0.16        2.81227
             Ti 15 -- Ti 29                  0.13        2.81232
             Ti 22 -- Ti 23                  0.21        2.81276
             Ti 9  -- Ti 45                  0.17        2.81409
             Ti 16 -- Ti 17                  0.24        2.81529
             Ti 8  -- Ti 48                  0.15        2.81648
             Ti 2  -- V 2                    0.16        2.81736
              Al 2 -- Ti 13                  0.25        2.81772
              Al 4 -- Ti 24                  0.28        2.81838
             Ti 30 -- Ti 45                  0.18        2.81890
              Al 6 -- Ti 55                  0.25        2.82141
             Ti 19 -- Ti 35                  0.24        2.82418
              Al 7 -- V 1                    0.22        2.82425
             Ti 3  -- Ti 7                   0.23        2.82430
              Al 1 -- Ti 16                  0.26        2.82450
              Al 6 -- Ti 4                   0.33        2.82469
             Ti 43 -- Ti 44                  0.16        2.82547
             Ti 41 -- Ti 55                  0.12        2.82833
             Ti 43 -- Ti 53                  0.23        2.82861
             Ti 2  -- Ti 6                   0.19        2.82963
             Ti 22 -- Ti 37                  0.15        2.83112
             Ti 22 -- Ti 41                  0.17        2.83163
              Al 2 -- Ti 55                  0.25        2.83229
              Al 2 -- Ti 26                  0.25        2.83299
             Ti 7  -- Ti 47                  0.16        2.83350
             Ti 51 -- V 1                    0.16        2.83351
             Ti 1  -- Ti 52                  0.15        2.83444
             Ti 6  -- Ti 43                  0.11        2.83459
              Al 4 -- Ti 29                  0.18        2.83478
             Ti 29 -- Ti 44                  0.18        2.83550
             Ti 29 -- Ti 30                  0.21        2.83650
              Al 1 -- Ti 3                   0.27        2.83672
             Ti 8  -- Ti 21                  0.16        2.83758
             Ti 17 -- Ti 21                  0.19        2.83804
             Ti 27 -- Ti 30                  0.14        2.83810
             Ti 41 -- Ti 42                  0.14        2.83920
             Ti 9  -- Ti 25                  0.19        2.83925
             Ti 12 -- Ti 15                  0.09        2.83989
             Ti 27 -- Ti 46                  0.22        2.84007
             Ti 4  -- Ti 21                  0.22        2.84030
             Ti 10 -- Ti 46                  0.21        2.84049
             Ti 34 -- Ti 48                  0.10        2.84052
             Ti 51 -- Ti 55                  0.15        2.84241
             Ti 35 -- Ti 49                  0.13        2.84314
             Ti 44 -- Ti 54                  0.23        2.84346
             Ti 6  -- Ti 7                   0.07        2.84411
             Ti 3  -- Ti 16                  0.04        2.84429
             Ti 37 -- Ti 51                  0.15        2.84444
             Ti 10 -- Ti 13                  0.18        2.84595
             Ti 16 -- Ti 36                  0.13        2.84684
             Ti 11 -- Ti 14                  0.22        2.84843
              Al 2 -- Ti 50                  0.23        2.84854
             Ti 16 -- Ti 32                  0.14        2.84891
             Ti 11 -- Ti 55                  0.18        2.84918
             Ti 1  -- Ti 18                  0.15        2.85004
             Ti 8  -- Ti 11                  0.14        2.85074
             Ti 30 -- Ti 31                  0.15        2.85076
             Ti 42 -- Ti 55                  0.22        2.85157
             Ti 36 -- Ti 37                  0.16        2.85163
             Ti 10 -- V 1                    0.17        2.85215
             Ti 35 -- Ti 53                  0.24        2.85342
              Al 3 -- Ti 27                  0.24        2.85377
             Ti 11 -- Ti 12                  0.16        2.85444
             Ti 49 -- Ti 50                  0.16        2.85688
             Ti 50 -- Ti 51                  0.12        2.85722
             Ti 2  -- Ti 13                  0.11        2.85730
             Ti 31 -- Ti 45                  0.11        2.85800
             Ti 6  -- Ti 23                  0.12        2.85850
             Ti 12 -- Ti 25                  0.18        2.86103
             Ti 10 -- Ti 50                  0.15        2.86266
             Ti 8  -- Ti 9                   0.21        2.86473
             Ti 31 -- Ti 32                  0.18        2.86563
              Al 3 -- Ti 32                  0.24        2.86635
             Ti 15 -- Ti 25                  0.12        2.86699
             Ti 41 -- Ti 52                  0.14        2.86765
             Ti 19 -- Ti 23                  0.22        2.86844
             Ti 33 -- Ti 51                  0.23        2.86927
             Ti 2  -- Ti 44                  0.18        2.87004
              Al 5 -- Ti 27                  0.22        2.87202
             Ti 50 -- Ti 54                  0.12        2.87220
             Ti 34 -- Ti 45                  0.18        2.87260
             Ti 23 -- Ti 38                  0.17        2.87560
             Ti 31 -- Ti 49                  0.10        2.87609
              Al 4 -- Ti 8                   0.19        2.87613
             Ti 6  -- Ti 46                  0.15        2.87852
             Ti 4  -- Ti 5                   0.13        2.87883
             Ti 19 -- V 2                    0.17        2.87929
             Ti 25 -- Ti 26                  0.10        2.88134
             Ti 1  -- Ti 14                  0.14        2.88247
             Ti 18 -- Ti 19                  0.15        2.88291
             Ti 1  -- Ti 43                  0.10        2.88582
             Ti 8  -- Ti 24                  0.06        2.88702
              Al 3 -- Ti 31                  0.19        2.88773
              Al 6 -- Ti 42                  0.24        2.88895
             Ti 20 -- Ti 35                  0.16        2.88911
              Al 1 -- Ti 42                  0.21        2.88950
             Ti 13 -- Ti 53                  0.13        2.89033
             Ti 6  -- Ti 10                  0.17        2.89058
             Ti 40 -- Ti 54                  0.12        2.89078
             Ti 4  -- Ti 16                  0.14        2.89189
             Ti 28 -- Ti 39                  0.13        2.89241
              Al 4 -- Ti 21                  0.24        2.89291
             Ti 37 -- Ti 55                  0.09        2.89297
             Ti 32 -- Ti 46                  0.15        2.89322
              Al 1 -- Ti 11                  0.24        2.89481
             Ti 35 -- Ti 38                  0.13        2.89563
             Ti 2  -- Ti 15                  0.12        2.89803
             Ti 49 -- Ti 53                  0.19        2.89919
             Ti 37 -- Ti 54                  0.24        2.90514
             Ti 33 -- Ti 47                  0.12        2.90698
              Al 2 -- Ti 54                  0.16        2.90789
             Ti 20 -- Ti 39                  0.16        2.90808
             Ti 37 -- Ti 41                  0.18        2.90985
             Ti 43 -- Ti 52                  0.21        2.91142
             Ti 5  -- Ti 18                  0.12        2.91159
              Al 4 -- Ti 28                  0.23        2.91161
             Ti 19 -- Ti 31                  0.11        2.91173
             Ti 14 -- Ti 17                  0.17        2.91288
             Ti 21 -- Ti 22                  0.13        2.91476
             Ti 21 -- Ti 36                  0.14        2.91635
             Ti 25 -- Ti 40                  0.13        2.91891
             Ti 45 -- Ti 48                  0.16        2.92076
             Ti 33 -- Ti 34                  0.16        2.92091
             Ti 11 -- Ti 24                  0.18        2.92148
             Ti 2  -- Ti 3                   0.12        2.92158
             Ti 14 -- Ti 28                  0.17        2.92182
             Ti 28 -- Ti 44                  0.14        2.92226
             Ti 17 -- Ti 22                  0.12        2.92396
             Ti 24 -- Ti 39                  0.17        2.92449
             Ti 15 -- Ti 30                  0.10        2.92530
             Ti 26 -- Ti 41                  0.13        2.92641
             Ti 1  -- Ti 5                   0.11        2.92643
             Ti 23 -- Ti 26                  0.17        2.92683
             Ti 13 -- Ti 49                  0.09        2.92697
              Al 5 -- Ti 38                  0.21        2.92834
             Ti 6  -- Ti 44                  0.18        2.92891
             Ti 17 -- Ti 33                  0.10        2.92908
             Ti 20 -- Ti 24                  0.11        2.93001
             Ti 19 -- Ti 34                  0.15        2.93012
             Ti 14 -- Ti 15                  0.17        2.93033
             Ti 35 -- Ti 48                  0.11        2.93109
             Ti 29 -- Ti 40                  0.19        2.93123
             Ti 9  -- Ti 10                  0.15        2.93171
             Ti 46 -- Ti 47                  0.16        2.93226
             Ti 33 -- Ti 37                  0.17        2.93274
             Ti 4  -- Ti 7                   0.12        2.93380
             Ti 1  -- Ti 11                  0.14        2.93542
              Al 6 -- Ti 3                   0.19        2.93545
              Al 7 -- Ti 48                  0.21        2.93641
             Ti 39 -- Ti 40                  0.15        2.93699
             Ti 20 -- Ti 21                  0.15        2.94052
             Ti 38 -- Ti 41                  0.13        2.94057
             Ti 4  -- Ti 8                   0.23        2.94143
             Ti 43 -- Ti 46                  0.14        2.94234
              Al 6 -- Ti 44                  0.19        2.94357
             Ti 11 -- Ti 52                  0.11        2.94396
              Al 3 -- Ti 16                  0.16        2.94603
             Ti 7  -- Ti 19                  0.13        2.94731
             Ti 52 -- Ti 53                  0.13        2.94741
             Ti 32 -- Ti 33                  0.12        2.94855
              Al 1 -- Ti 5                   0.19        2.94886
             Ti 1  -- Ti 42                  0.10        2.94997
             Ti 39 -- Ti 43                  0.18        2.95036
             Ti 3  -- Ti 55                  0.18        2.95056
             Ti 12 -- Ti 53                  0.16        2.95064
              Al 2 -- Ti 11                  0.23        2.95383
             Ti 20 -- V 1                    0.11        2.95402
             Ti 40 -- Ti 41                  0.12        2.95445
             Ti 45 -- Ti 46                  0.13        2.95463
             Ti 7  -- Ti 23                  0.04        2.95511
             Ti 35 -- Ti 36                  0.14        2.95660
             Ti 9  -- Ti 13                  0.18        2.95908
             Ti 39 -- Ti 53                  0.14        2.95975
              Al 4 -- Ti 40                  0.17        2.96140
             Ti 36 -- Ti 50                  0.13        2.96254
             Ti 10 -- Ti 22                  0.14        2.96392
             Ti 32 -- Ti 49                  0.17        2.96477
             Ti 10 -- Ti 47                  0.11        2.96616
              Al 5 -- Ti 26                  0.18        2.96828
              Al 2 -- Ti 51                  0.14        2.96843
             Ti 9  -- Ti 48                  0.11        2.97029
             Ti 31 -- Ti 35                  0.15        2.97055
             Ti 27 -- Ti 28                  0.14        2.97103
             Ti 1  -- Ti 2                   0.14        2.97280
             Ti 16 -- Ti 19                  0.10        2.97329
             Ti 30 -- Ti 34                  0.08        2.97349
             Ti 9  -- Ti 12                  0.13        2.97403
             Ti 48 -- Ti 51                  0.13        2.97489
             Ti 26 -- Ti 30                  0.08        2.97545
             Ti 17 -- Ti 36                  0.13        2.97831
             Ti 24 -- Ti 26                  0.16        2.97942
             Ti 9  -- Ti 21                  0.16        2.97956
             Ti 18 -- Ti 33                  0.13        2.98075
              Al 5 -- Ti 20                  0.20        2.98154
              Al 2 -- V 2                    0.17        2.98194
              Al 3 -- Ti 3                   0.12        2.98516
             Ti 29 -- Ti 47                  0.15        2.98946
             Ti 4  -- Ti 45                  0.14        2.98951
             Ti 45 -- Ti 49                  0.15        2.98963
             Ti 22 -- Ti 38                  0.11        2.99031
              Al 4 -- Ti 15                  0.19        2.99212
              Al 6 -- Ti 30                  0.18        2.99823
======================================================================


Writing analysis data to sqs_bcc_sc4x4x4_Ti55Al7V2_frame0_02.castep_bin

Writing model to sqs_bcc_sc4x4x4_Ti55Al7V2_frame0_02.check
 
 A BibTeX formatted list of references used in this run has been written to 
 sqs_bcc_sc4x4x4_Ti55Al7V2_frame0_02.bib
 
Initialisation time =     21.39 s
Calculation time    =   4689.41 s
Finalisation time   =     84.36 s
Total time          =   4795.16 s
Peak Memory Use     = 2320220 kB
 
Overall parallel efficiency rating: Mediocre (52%)
 
Data was distributed by:-
G-vector (16-way); efficiency rating: Mediocre (54%)
k-point (18-way); efficiency rating: Excellent (95%)
