 +-------------------------------------------------+
 |                                                 |
 |      CCC   AA    SSS  TTTTT  EEEEE  PPPP        |
 |     C     A  A  S       T    E      P   P       |
 |     C     AAAA   SS     T    EEE    PPPP        |
 |     C     A  A     S    T    E      P           |
 |      CCC  A  A  SSS     T    EEEEE  P           |
 |                                                 |
 +-------------------------------------------------+
 |                                                 |
 | Welcome to Academic Release CASTEP version 24.1 |
 | Ab Initio Total Energy Program                  |
 |                                                 |
 | Authors:                                        |
 | M. Segall, M. Probert, C. Pickard, P. Hasnip,   |
 | S. Clark, K. Refson, J. R. Yates,               |
 | A. Bartok-Partay, M. Payne                      |
 |                                                 |
 | Contributors:                                   |
 | P. Lindan, P. Haynes, J. White, V. Milman,      |
 | N. Govind, M. Gibson, P. Tulip, V. Cocula,      |
 | B. Montanari, D. Quigley, M. Glover,            |
 | L. Bernasconi, A. Perlov, M. Plummer,           |
 | E. McNellis, J. Meyer, J. Gale, D. Jochym       |
 | J. Aarons, B. Walker, R. Gillen, D. Jones       |
 | T. Green, I. J. Bush, C. J. Armstrong,          |
 | E. J. Higgins, E. L. Brown, M. S. McFly,        |
 | J. Wilkins, B-C. Shih, P. J. P. Byrne,          |
 | R. J. Maurer, J. C. Womack, J. Dziedzic,        |
 | L. LeBlanc, T. K. Stenczel, J. Kermode,         |
 | S. Sturniolo, B. Shi, B. Durham, M. Evans,      |
 | M. J. Smith, A. Tamerus, Z. Hawkhead,           |
 | V. Ravindran, T. Hollins, S. A. Joyce,          |
 | R. T. Strong, A. M. Reilly                      |
 |                                                 |
 | Copyright (c) 2000 - 2023                       |
 |                                                 |
 |     Distributed under license from Cambridge    |
 |     Enterprise for academic use only.           |
 |                                                 |
 | Please cite                                     |
 |                                                 |
 |     "First principles methods using CASTEP"     |
 |                                                 |
 |         Zeitschrift fuer Kristallographie       |
 |           220(5-6) pp. 567-570 (2005)           |
 |                                                 |
 | S. J. Clark, M. D. Segall, C. J. Pickard,       |
 | P. J. Hasnip, M. J. Probert, K. Refson,         |
 | M. C. Payne                                     |
 |                                                 |
 |       in all publications arising from          |
 |              your use of CASTEP                 |
 |                                                 |
 +-------------------------------------------------+
 |                                                 |
 |              http://www.castep.org              |
 |                                                 |
 +-------------------------------------------------+



 Compiled for linux_x86_64_gfortran10 on Tue, 02 May 2023 15:31:46 +0100
 from code version db08e394c+  default  Mon May 1 16:40:39 2023 +0100
 Compiler: GNU Fortran 10.2.0; Optimisation: fast
 Comms   : Open MPI v4.0.5
 MATHLIBS: openblas (LAPACK version 3.9.0)
 FFT Lib : fftw3 version fftw-3.3.8-sse2-avx-avx2-avx2_128
 Fundamental constants values: CODATA 2018

 Run started: Wed, 07 Feb 2024 20:54:24 +0000
 Info: number of up-spin electrons is not equal to the
       number of down-spins but spin_polarized=false
     - consider setting spin_polarized=true.

 Atomic calculation performed for Al: 1s2 2s2 2p6 3s2 3p1

 Converged in 54 iterations to an ae energy of -6603.783 eV

   ============================================================                
   | Pseudopotential Report - Date of generation  7-02-2024   |                
   ------------------------------------------------------------                
   | Element: Al Ionic charge:  3.00 Level of theory: PBE     |                
   | Atomic Solver: Koelling-Harmon                           |                
   |                                                          |                
   |               Reference Electronic Structure             |                
   |         Orbital         Occupation         Energy        |                
   |            3s              2.000           -0.285        |                
   |            3p              1.000           -0.100        |                
   |                                                          |                
   |                 Pseudopotential Definition               |                
   |        Beta     l      e      Rc     scheme   norm       |                
   |          1      0   -0.285   2.192     qc      0         |                
   |          2      0    0.250   2.192     qc      0         |                
   |          3      1   -0.100   2.192     qc      0         |                
   |          4      1    0.250   2.192     qc      0         |                
   |          5      2    0.000   2.000     qc      0         |                
   |          6      2    0.250   2.000     qc      0         |                
   |         loc     3    0.000   2.192     pn      0         |                
   |                                                          |                
   | Augmentation charge Rinner = 1.398                       |                
   | Partial core correction Rc = 1.398                       |                
   ------------------------------------------------------------                
   | "3|2.2|2.2|1.4|4|5|5|30:31:32U2U2"                       |                
   ------------------------------------------------------------                
   |      Author: Chris J. Pickard, Cambridge University      |                
   ============================================================                

 Atomic calculation performed for Ti: 1s2 2s2 2p6 3s2 3p6 3d2 4s2

 Converged in 79 iterations to an ae energy of -23226.658 eV

   ============================================================                
   | Pseudopotential Report - Date of generation  7-02-2024   |                
   ------------------------------------------------------------                
   | Element: Ti Ionic charge: 12.00 Level of theory: PBE     |                
   | Atomic Solver: Koelling-Harmon                           |                
   |                                                          |                
   |               Reference Electronic Structure             |                
   |         Orbital         Occupation         Energy        |                
   |            3s              2.000           -2.302        |                
   |            3p              6.000           -1.428        |                
   |            4s              2.000           -0.164        |                
   |            3d              2.000           -0.157        |                
   |                                                          |                
   |                 Pseudopotential Definition               |                
   |        Beta     l      e      Rc     scheme   norm       |                
   |          1      0   -2.302   1.793     qc      0         |                
   |          2      0   -0.164   1.793     qc      0         |                
   |          3      0    0.250   1.793     qc      0         |                
   |          4      1   -1.428   1.793     qc      0         |                
   |          5      1    0.250   1.793     qc      0         |                
   |          6      2   -0.157   1.793     qc      0         |                
   |          7      2    0.250   1.793     qc      0         |                
   |         loc     3    0.000   1.793     pn      0         |                
   |                                                          |                
   | Augmentation charge Rinner = 1.263                       |                
   | Partial core correction Rc = 1.263                       |                
   ------------------------------------------------------------                
   | "3|1.8|9|10|11|30U:40:31:32(qc=5.5)"                     |                
   ------------------------------------------------------------                
   |      Author: Chris J. Pickard, Cambridge University      |                
   ============================================================                

 Atomic calculation performed for V: 1s2 2s2 2p6 3s2 3p6 3d3 4s2

 Converged in 81 iterations to an ae energy of -25823.733 eV

   ============================================================                
   | Pseudopotential Report - Date of generation  7-02-2024   |                
   ------------------------------------------------------------                
   | Element: V Ionic charge: 13.00 Level of theory: PBE      |                
   | Atomic Solver: Koelling-Harmon                           |                
   |                                                          |                
   |               Reference Electronic Structure             |                
   |         Orbital         Occupation         Energy        |                
   |            3s              2.000           -2.581        |                
   |            3p              6.000           -1.618        |                
   |            3d              3.000           -0.190        |                
   |            4s              2.000           -0.173        |                
   |                                                          |                
   |                 Pseudopotential Definition               |                
   |        Beta     l      e      Rc     scheme   norm       |                
   |          1      0   -2.581   1.803     qc      0         |                
   |          2      0   -0.173   1.803     qc      0         |                
   |          3      0    0.250   1.803     qc      0         |                
   |          4      1   -1.618   1.803     qc      0         |                
   |          5      1    0.250   1.803     qc      0         |                
   |          6      2   -0.190   1.803     qc      0         |                
   |          7      2    0.250   1.803     qc      0         |                
   |         loc     3    0.000   1.803     pn      0         |                
   |                                                          |                
   | Augmentation charge Rinner = 0.600                       |                
   | Partial core correction Rc = 0.600                       |                
   ------------------------------------------------------------                
   | "3|1.8|1.8|0.6|12|14|16|30U:40:31:32(qc=7)"              |                
   ------------------------------------------------------------                
   |      Author: Chris J. Pickard, Cambridge University      |                
   ============================================================                

 Pseudo atomic calculation performed for Al 3s2 3p1

 Converged in 15 iterations to a total energy of -107.1308 eV

 Pseudo atomic calculation performed for Ti 3s2 3p6 3d2 4s2

 Converged in 34 iterations to a total energy of -1587.0236 eV

 Pseudo atomic calculation performed for V 3s2 3p6 3d3 4s2

 Converged in 35 iterations to a total energy of -2065.7874 eV
 Calculation parallelised over 240 processes.
 Data is distributed by G-vector(16-way) and k-point(15-way)

 ************************************ Title ************************************
 

 ***************************** General Parameters ******************************
  
 output verbosity                               : normal  (1)
 write checkpoint data to                       : sqs_hex_sc3x3x3_Ti70Al8V3_frame0_19.check
 type of calculation                            : single point energy
 stress calculation                             : on
 density difference calculation                 : off
 electron localisation func (ELF) calculation   : off
 Hirshfeld analysis                             : off
 polarisation (Berry phase) analysis            : off
 molecular orbital projected DOS                : off
 deltaSCF calculation                           : off
 unlimited duration calculation
 timing information                             : on
 memory usage estimate                          : on
 write extra output files                       : on
 write final potential to formatted file        : off
 write final density to formatted file          : off
 write BibTeX reference list                    : on
 write OTFG pseudopotential files               : on
 write electrostatic potential file             : on
 write bands file                               : on
 checkpoint writing                             : off
  
 output         length unit                     : A
 output           mass unit                     : amu
 output           time unit                     : ps
 output         charge unit                     : e
 output           spin unit                     : hbar/2
 output         energy unit                     : eV
 output          force unit                     : eV/A
 output       velocity unit                     : A/ps
 output       pressure unit                     : GPa
 output     inv_length unit                     : 1/A
 output      frequency unit                     : cm-1
 output force constant unit                     : eV/A**2
 output         volume unit                     : A**3
 output   IR intensity unit                     : (D/A)**2/amu
 output         dipole unit                     : D
 output         efield unit                     : eV/A/e
 output        entropy unit                     : J/mol/K
 output    efield chi2 unit                     : pm/V
  
 wavefunctions paging                           : none
 random number generator seed                   :  205424816
 data distribution                              : k-point only
 optimization strategy                          : maximize speed(+++)

 *********************** Exchange-Correlation Parameters ***********************
  
 using functional                               : Perdew Burke Ernzerhof
 relativistic treatment                         : Koelling-Harmon
 DFT+D: Semi-empirical dispersion correction    : off

 ************************* Pseudopotential Parameters **************************
  
 pseudopotential representation                 : reciprocal space
 <beta|phi> representation                      : reciprocal space
 spin-orbit coupling                            : off

 **************************** Basis Set Parameters *****************************
  
 plane wave basis set cut-off                   :   800.0000   eV
 size of standard grid                          :     2.0000
 size of   fine   gmax                          :    28.9810   1/A
 largest prime factor in FFT                    :          5
 finite basis set correction                    : automatic
 number of sample energies                      :          3
           sample  spacing                      :     5.0000   eV

 **************************** Electronic Parameters ****************************
  
 number of  electrons                           :  903.0    
 net charge of system                           :  0.000    
 treating system as non-spin-polarized
 number of bands                                :        487

 ********************* Electronic Minimization Parameters **********************
  
 Method: Treating system as metallic with density mixing treatment of electrons,
         and number of  SD  steps               :          1
         and number of  CG  steps               :          4
  
 total energy / atom convergence tol.           : 0.1000E-05   eV
 eigen-energy convergence tolerance             : 0.1663E-06   eV
 max force / atom convergence tol.              : ignored
 convergence tolerance window                   :          3   cycles
 max. number of SCF cycles                      :         30
 number of fixed-spin iterations                :         10
 smearing scheme                                : Gaussian
 smearing width                                 : 0.5000E-01   eV
 Fermi energy convergence tolerance             : 0.2721E-13   eV
 periodic dipole correction                     : NONE

 ************************** Density Mixing Parameters **************************
  
 density-mixing scheme                          : Pulay
 max. length of mixing history                  :         20
 charge density mixing amplitude                : 0.8000    
 cut-off energy for mixing                      :  800.0       eV
 charge density mixing g-vector                 :  1.500       1/A

 *********************** Population Analysis Parameters ************************
  
 Population analysis with cutoff                :  3.000       A
 Population analysis output                     : summary and pdos components

 ******************************* Developer Code ********************************
  
 PARALLEL: kpoint=15 : ENDPARALLEL
 no_improve_wvfn

 *******************************************************************************
  

                           -------------------------------
                                      Unit Cell
                           -------------------------------
        Real Lattice(A)                      Reciprocal Lattice(1/A)
     6.8351780   -11.8388750    -0.1183280        0.459621203  -0.265388451   0.002603999
     6.8351780    11.8388760     0.1183690        0.459621179   0.265388426  -0.002601444
    -0.0000240     0.0846750     8.6339490       -0.000002182  -0.007275541   0.727801538

                       Lattice parameters(A)       Cell Angles
                    a =     13.670868          alpha =   89.017372
                    b =     13.670869          beta  =   90.982615
                    c =      8.634364          gamma =  120.002479

                       Current cell volume =          1397.195497       A**3
                                   density =             2.662023   AMU/A**3
                                           =             4.420394     g/cm^3

                           -------------------------------
                                     Cell Contents
                           -------------------------------
                         Total number of ions in cell =   81
                      Total number of species in cell =    3
                        Max number of any one species =   70

            xxxxxxxxxxxxxxxxxxxxxxxxxxxxxxxxxxxxxxxxxxxxxxxxxxxxxxxxxxxx
            x  Element    Atom        Fractional coordinates of atoms  x
            x            Number           u          v          w      x
            x----------------------------------------------------------x
            x  Al           1        -0.000247  -0.001326   0.330733   x 
            x  Al           2         0.561171   0.117172   0.794242   x 
            x  Al           3         0.552346   0.444073   0.652557   x 
            x  Al           4         0.560953   0.442024   0.973541   x 
            x  Al           5         0.336101   0.664673  -0.004848   x 
            x  Al           6         0.557634   0.777502   0.155799   x 
            x  Al           7         0.450688   0.900541   0.839547   x 
            x  Al           8         0.779252   0.889231   0.832163   x 
            x  Ti           1        -0.001779  -0.002587  -0.003597   x 
            x  Ti           2         0.108549   0.219909   0.163498   x 
            x  Ti           3         0.222498   0.110493   0.162162   x 
            x  Ti           4         0.106828   0.220019   0.497345   x 
            x  Ti           5         0.221687   0.110436   0.495743   x 
            x  Ti           6        -0.001662  -0.002396   0.665211   x 
            x  Ti           7         0.108640   0.218419   0.830768   x 
            x  Ti           8         0.224869   0.111682   0.829381   x 
            x  Ti           9         0.003632   0.336991  -0.002433   x 
            x  Ti          10         0.115427   0.556488   0.162964   x 
            x  Ti          11         0.225239   0.444777   0.164822   x 
            x  Ti          12         0.002551   0.334690   0.332524   x 
            x  Ti          13         0.112660   0.557161   0.495839   x 
            x  Ti          14         0.223460   0.446833   0.499970   x 
            x  Ti          15        -0.000455   0.335350   0.666586   x 
            x  Ti          16         0.109243   0.556232   0.829239   x 
            x  Ti          17         0.221769   0.444388   0.831850   x 
            x  Ti          18         0.000365   0.665542  -0.004249   x 
            x  Ti          19         0.112536   0.889715   0.162442   x 
            x  Ti          20         0.217888   0.775277   0.164047   x 
            x  Ti          21        -0.005464   0.664090   0.328735   x 
            x  Ti          22         0.113142   0.888943   0.494455   x 
            x  Ti          23         0.221125   0.776339   0.492681   x 
            x  Ti          24        -0.004545   0.664505   0.663284   x 
            x  Ti          25         0.109696   0.888687   0.827867   x 
            x  Ti          26         0.224622   0.779543   0.828082   x 
            x  Ti          27         0.333992   0.000309  -0.006320   x 
            x  Ti          28         0.451283   0.234852   0.159903   x 
            x  Ti          29         0.556528   0.110575   0.142310   x 
            x  Ti          30         0.336418   0.005066   0.326601   x 
            x  Ti          31         0.452068   0.236456   0.487518   x 
            x  Ti          32         0.334858   0.002202   0.659143   x 
            x  Ti          33         0.451035   0.232520   0.825347   x 
            x  Ti          34         0.325672   0.330257  -0.001417   x 
            x  Ti          35         0.451406   0.548786   0.155394   x 
            x  Ti          36         0.558241   0.447419   0.310247   x 
            x  Ti          37         0.320581   0.326511   0.328374   x 
            x  Ti          38         0.449629   0.546337   0.489433   x 
            x  Ti          39         0.321492   0.327665   0.659526   x 
            x  Ti          40         0.449650   0.548696   0.821232   x 
            x  Ti          41         0.439522   0.885989   0.165315   x 
            x  Ti          42         0.335897   0.666633   0.329957   x 
            x  Ti          43         0.446670   0.896220   0.507807   x 
            x  Ti          44         0.552530   0.775180   0.482160   x 
            x  Ti          45         0.337370   0.669584   0.661591   x 
            x  Ti          46         0.554897   0.777830   0.828963   x 
            x  Ti          47         0.667139  -0.002828  -0.004772   x 
            x  Ti          48         0.780331   0.221598   0.168313   x 
            x  Ti          49         0.888455   0.112281   0.165778   x 
            x  Ti          50         0.662668  -0.004470   0.329432   x 
            x  Ti          51         0.770173   0.217601   0.500950   x 
            x  Ti          52         0.886936   0.114703   0.494753   x 
            x  Ti          53         0.667112  -0.005315   0.663059   x 
            x  Ti          54         0.782897   0.225112   0.839423   x 
            x  Ti          55         0.889225   0.112704   0.830038   x 
            x  Ti          56         0.769794   0.544721   0.135186   x 
            x  Ti          57         0.892755   0.443330   0.164231   x 
            x  Ti          58         0.671932   0.327119   0.321028   x 
            x  Ti          59         0.762578   0.547571   0.485135   x 
            x  Ti          60         0.888702   0.444169   0.500467   x 
            x  Ti          61         0.669707   0.333575   0.663686   x 
            x  Ti          62         0.877221   0.448702   0.837333   x 
            x  Ti          63         0.671184   0.674149  -0.005626   x 
            x  Ti          64         0.782764   0.892879   0.161762   x 
            x  Ti          65         0.888461   0.774609   0.169204   x 
            x  Ti          66         0.675867   0.682590   0.325152   x 
            x  Ti          67         0.781058   0.892616   0.504270   x 
            x  Ti          68         0.889891   0.775228   0.499151   x 
            x  Ti          69         0.670677   0.675987   0.657990   x 
            x  Ti          70         0.885427   0.769594   0.834433   x 
            x  V            1         0.552039   0.117615   0.474329   x 
            x  V            2         0.663753   0.316479  -0.004301   x 
            x  V            3         0.761099   0.553177   0.803565   x 
            xxxxxxxxxxxxxxxxxxxxxxxxxxxxxxxxxxxxxxxxxxxxxxxxxxxxxxxxxxxx


                         No user defined ionic velocities

                           -------------------------------
                                   Details of Species
                           -------------------------------

                               Mass of species in AMU
                                    Al   26.9815400
                                    Ti   47.8670000
                                    V   50.9415000

                          Electric Quadrupole Moment (Barn)
                                    Al    0.1466000 Isotope 27
                                    Ti    0.3020000 Isotope 47
                                    V   -0.0520000 Isotope 51

                          Files used for pseudopotentials:
                                    Al 3|2.2|2.2|1.4|4|5|5|30:31:32U2U2
                                    Ti 3|1.8|9|10|11|30U:40:31:32(qc=5.5)
                                    V 3|1.8|1.8|0.6|12|14|16|30U:40:31:32(qc=7)

                           -------------------------------
                              k-Points For BZ Sampling
                           -------------------------------
                       MP grid size for SCF calculation is  5  5  6
                            with an offset of   0.000  0.000  0.000
                       Number of kpoints used =            75

                           -------------------------------
                               Symmetry and Constraints
                           -------------------------------

                      Maximum deviation from symmetry =  0.00000         ANG

                      Number of symmetry operations   =           1
                      Number of ionic constraints     =           3
                      Point group of crystal =     1: C1, 1, 1
                      Space group of crystal =     1: P1, P 1

             Set iprint > 1 for details on symmetry rotations/translations

                         Centre of mass is constrained
             Set iprint > 1 for details of linear ionic constraints

                         Number of cell constraints= 0
                         Cell constraints are:  1 2 3 4 5 6

                         External pressure/stress (GPa)
                          0.00000   0.00000   0.00000
                                    0.00000   0.00000
                                              0.00000
 
+---------------- MEMORY AND SCRATCH DISK ESTIMATES PER PROCESS --------------+
|                                                     Memory          Disk    |
| Baseline code, static data and system overhead      591.0 MB         0.0 MB |
| BLAS internal memory storage                          0.0 MB         0.0 MB |
| Model and support data                              931.6 MB         0.0 MB |
| Electronic energy minimisation requirements         448.9 MB         0.0 MB |
| Force calculation requirements                       15.9 MB         0.0 MB |
| Stress calculation requirements                      17.2 MB         0.0 MB |
|                                               ----------------------------- |
| Approx. total storage required per process         1971.5 MB         0.0 MB |
|                                                                             |
| Requirements will fluctuate during execution and may exceed these estimates |
+-----------------------------------------------------------------------------+
Calculating finite basis set correction with  3 cut-off energies.
Calculating total energy with cut-off of  790.000 eV.
------------------------------------------------------------------------ <-- SCF
SCF loop      Energy           Fermi           Energy gain       Timer   <-- SCF
                               energy          per atom          (sec)   <-- SCF
------------------------------------------------------------------------ <-- SCF
Initial  -1.06761843E+005  0.00000000E+000                        34.09  <-- SCF
      1  -1.15663704E+005  1.16771798E+001   1.09899517E+002     229.32  <-- SCF
      2  -1.18522694E+005  9.03040311E+000   3.52961716E+001     391.76  <-- SCF
      3  -1.18685962E+005  8.80260835E+000   2.01565882E+000     557.12  <-- SCF
      4  -1.18712088E+005  7.95140154E+000   3.22538368E-001     753.82  <-- SCF
      5  -1.18694525E+005  8.17823195E+000  -2.16824863E-001     953.59  <-- SCF
      6  -1.18687761E+005  8.35292686E+000  -8.35021558E-002    1145.58  <-- SCF
      7  -1.18682586E+005  8.37647437E+000  -6.38947248E-002    1344.97  <-- SCF
      8  -1.18683697E+005  8.32446247E+000   1.37149838E-002    1538.70  <-- SCF
      9  -1.18682482E+005  8.32188355E+000  -1.49951449E-002    1721.05  <-- SCF
     10  -1.18682180E+005  8.30365242E+000  -3.72711993E-003    1910.25  <-- SCF
     11  -1.18682256E+005  8.29784216E+000   9.41048723E-004    2102.50  <-- SCF
     12  -1.18682187E+005  8.29405404E+000  -8.61222067E-004    2280.91  <-- SCF
     13  -1.18682168E+005  8.29495489E+000  -2.35834734E-004    2469.18  <-- SCF
     14  -1.18682167E+005  8.29525189E+000  -3.24374491E-006    2649.62  <-- SCF
     15  -1.18682165E+005  8.29527507E+000  -2.51724707E-005    2806.12  <-- SCF
     16  -1.18682165E+005  8.29533170E+000   2.89739084E-006    2961.18  <-- SCF
     17  -1.18682165E+005  8.29545234E+000  -3.34167059E-006    3099.84  <-- SCF
     18  -1.18682165E+005  8.29545176E+000   1.57679210E-008    3208.68  <-- SCF
     19  -1.18682165E+005  8.29544302E+000  -4.49642553E-008    3316.67  <-- SCF
------------------------------------------------------------------------ <-- SCF
 
Final energy, E             =  -118682.0515569     eV
Final free energy (E-TS)    =  -118682.1651614     eV
(energies not corrected for finite basis set)
 
NB est. 0K energy (E-0.5TS)      =  -118682.1083592     eV
 
Calculating total energy with cut-off of  795.000 eV.
------------------------------------------------------------------------ <-- SCF
SCF loop      Energy           Fermi           Energy gain       Timer   <-- SCF
                               energy          per atom          (sec)   <-- SCF
------------------------------------------------------------------------ <-- SCF
Initial  -1.18682052E+005  0.00000000E+000                      3347.43  <-- SCF
      1  -1.18682168E+005  8.29554779E+000   1.43559374E-003    3492.95  <-- SCF
      2  -1.18682168E+005  8.29554639E+000   3.63368984E-006    3641.97  <-- SCF
      3  -1.18682212E+005  8.29387919E+000   5.46414468E-004    3823.60  <-- SCF
      4  -1.18682169E+005  8.29607819E+000  -5.34485036E-004    3999.75  <-- SCF
      5  -1.18682166E+005  8.29545555E+000  -3.44019866E-005    4165.77  <-- SCF
      6  -1.18682167E+005  8.29554071E+000   4.75946660E-006    4317.03  <-- SCF
      7  -1.18682167E+005  8.29534236E+000  -5.48244688E-007    4431.00  <-- SCF
      8  -1.18682167E+005  8.29539726E+000  -2.26062068E-007    4537.84  <-- SCF
------------------------------------------------------------------------ <-- SCF
 
Final energy, E             =  -118682.0529955     eV
Final free energy (E-TS)    =  -118682.1665840     eV
(energies not corrected for finite basis set)
 
NB est. 0K energy (E-0.5TS)      =  -118682.1097897     eV
 
Calculating total energy with cut-off of  800.000 eV.
------------------------------------------------------------------------ <-- SCF
SCF loop      Energy           Fermi           Energy gain       Timer   <-- SCF
                               energy          per atom          (sec)   <-- SCF
------------------------------------------------------------------------ <-- SCF
Initial  -1.18682053E+005  0.00000000E+000                      4568.55  <-- SCF
      1  -1.18682177E+005  8.29541506E+000   1.53355617E-003    4740.48  <-- SCF
      2  -1.18682177E+005  8.29541121E+000   3.39552845E-006    4885.51  <-- SCF
      3  -1.18682413E+005  8.29283138E+000   2.91604103E-003    5070.49  <-- SCF
      4  -1.18682179E+005  8.29819565E+000  -2.89374959E-003    5249.40  <-- SCF
      5  -1.18682166E+005  8.29567100E+000  -1.57020342E-004    5418.68  <-- SCF
      6  -1.18682168E+005  8.29535269E+000   2.62666676E-005    5586.37  <-- SCF
      7  -1.18682168E+005  8.29545013E+000  -3.76602281E-006    5738.45  <-- SCF
      8  -1.18682168E+005  8.29531772E+000  -2.19780412E-006    5856.76  <-- SCF
      9  -1.18682168E+005  8.29535581E+000  -1.84822020E-007    5965.16  <-- SCF
     10  -1.18682168E+005  8.29537750E+000  -1.34157029E-007    6071.84  <-- SCF
------------------------------------------------------------------------ <-- SCF
 
Final energy, E             =  -118682.0543277     eV
Final free energy (E-TS)    =  -118682.1679330     eV
(energies not corrected for finite basis set)
 
NB est. 0K energy (E-0.5TS)      =  -118682.1111303     eV
 
 For future reference: finite basis dEtot/dlog(Ecut) =      -0.220676eV
 Total energy corrected for finite basis set = -118682.167932 eV

 ************************** Forces **************************
 *                                                          *
 *               Cartesian components (eV/A)                *
 * -------------------------------------------------------- *
 *                         x            y            z      *
 *                                                          *
 * Al              1      0.02522      0.02627      0.00346 *
 * Al              2     -0.21536     -0.03963      0.04977 *
 * Al              3      0.09151     -0.00988     -0.00301 *
 * Al              4     -0.00058      0.06221     -0.00905 *
 * Al              5     -0.03892      0.01602     -0.04829 *
 * Al              6     -0.05235      0.05901     -0.02231 *
 * Al              7     -0.12801     -0.13361      0.15332 *
 * Al              8     -0.01651      0.04930      0.04323 *
 * Ti              1      0.04755     -0.05714      0.10208 *
 * Ti              2     -0.11863      0.01647      0.02341 *
 * Ti              3      0.04647     -0.03940     -0.01046 *
 * Ti              4     -0.08982      0.00349     -0.03743 *
 * Ti              5      0.00384      0.01453     -0.05917 *
 * Ti              6      0.01651      0.00728     -0.09275 *
 * Ti              7     -0.02948      0.08449     -0.00059 *
 * Ti              8      0.08127     -0.02352      0.00660 *
 * Ti              9      0.02970     -0.03640     -0.04802 *
 * Ti             10      0.01013      0.05093      0.01361 *
 * Ti             11      0.06706     -0.03184     -0.03971 *
 * Ti             12     -0.04041      0.03405     -0.00993 *
 * Ti             13     -0.03809      0.02758      0.00747 *
 * Ti             14      0.05992     -0.02839     -0.07114 *
 * Ti             15      0.00046     -0.02535      0.03618 *
 * Ti             16      0.05204      0.00584      0.01009 *
 * Ti             17      0.07753      0.03076     -0.06270 *
 * Ti             18     -0.11015      0.03793     -0.08857 *
 * Ti             19     -0.08545      0.05026      0.04575 *
 * Ti             20      0.12320     -0.03090      0.03178 *
 * Ti             21      0.03802     -0.05659     -0.00573 *
 * Ti             22      0.00214      0.02685     -0.01924 *
 * Ti             23      0.02391      0.03162     -0.03278 *
 * Ti             24      0.00425     -0.01599      0.09069 *
 * Ti             25      0.01255     -0.12358     -0.02485 *
 * Ti             26     -0.05766     -0.06715      0.03616 *
 * Ti             27     -0.05466      0.01798      0.02932 *
 * Ti             28      0.09766     -0.05533      0.02917 *
 * Ti             29      0.03593      0.05738      0.10756 *
 * Ti             30     -0.00485      0.02899     -0.00743 *
 * Ti             31     -0.03876     -0.05126     -0.09944 *
 * Ti             32     -0.00939     -0.02344      0.04599 *
 * Ti             33      0.03780     -0.12288      0.08368 *
 * Ti             34     -0.06720      0.07161     -0.04662 *
 * Ti             35     -0.01497      0.02083      0.03125 *
 * Ti             36     -0.11250      0.01603      0.19817 *
 * Ti             37      0.04501     -0.01750     -0.06197 *
 * Ti             38      0.05902      0.05724     -0.10330 *
 * Ti             39     -0.00404     -0.00006      0.13820 *
 * Ti             40     -0.04540     -0.00470     -0.12682 *
 * Ti             41      0.02416      0.00668      0.02490 *
 * Ti             42      0.01922      0.03654     -0.16741 *
 * Ti             43     -0.01893     -0.08718      0.01404 *
 * Ti             44      0.06235      0.06538     -0.07225 *
 * Ti             45      0.05854      0.05259      0.08340 *
 * Ti             46     -0.06641     -0.06212     -0.03442 *
 * Ti             47      0.04953      0.04631     -0.01222 *
 * Ti             48      0.06150      0.03697     -0.05358 *
 * Ti             49     -0.05655     -0.01781     -0.00223 *
 * Ti             50      0.03517      0.01859     -0.08485 *
 * Ti             51      0.02482     -0.13264     -0.05784 *
 * Ti             52     -0.01833     -0.03764     -0.05752 *
 * Ti             53     -0.04716      0.04691      0.00614 *
 * Ti             54     -0.02168     -0.01994      0.10260 *
 * Ti             55      0.07879      0.16710      0.04841 *
 * Ti             56      0.13204      0.02090      0.28659 *
 * Ti             57     -0.05232      0.10786     -0.10345 *
 * Ti             58      0.01981      0.13083      0.05026 *
 * Ti             59      0.03229     -0.07802     -0.03691 *
 * Ti             60     -0.00506      0.01696     -0.05334 *
 * Ti             61     -0.08236     -0.02550     -0.09388 *
 * Ti             62     -0.01195      0.01361      0.01811 *
 * Ti             63     -0.01824      0.06533      0.05174 *
 * Ti             64      0.03236     -0.01243     -0.00276 *
 * Ti             65     -0.02728      0.01363     -0.05151 *
 * Ti             66     -0.11193     -0.03499     -0.04397 *
 * Ti             67      0.05275      0.01564      0.02892 *
 * Ti             68     -0.04764      0.03280     -0.14923 *
 * Ti             69      0.00291     -0.01417      0.07219 *
 * Ti             70     -0.04243     -0.07759     -0.12169 *
 * V               1     -0.04592     -0.03145      0.00214 *
 * V               2      0.06765      0.03760      0.01893 *
 * V               3      0.20478     -0.21114      0.20506 *
 *                                                          *
 ************************************************************

 ***************** Stress Tensor *****************
 *                                               *
 *          Cartesian components (GPa)           *
 * --------------------------------------------- *
 *             x             y             z     *
 *                                               *
 *  x      1.024451      0.022507     -0.233211  *
 *  y      0.022507      1.087374      1.258324  *
 *  z     -0.233211      1.258324      4.311710  *
 *                                               *
 *  Pressure:   -2.1412                          *
 *                                               *
 *************************************************

 Pseudo atomic calculation performed for Al 3s2 3p1

 Converged in 15 iterations to a total energy of -107.1308 eV

 Pseudo atomic calculation performed for Ti 3s2 3p6 3d2 4s2

 Converged in 34 iterations to a total energy of -1587.0236 eV

 Pseudo atomic calculation performed for V 3s2 3p6 3d3 4s2

 Converged in 35 iterations to a total energy of -2065.7874 eV
Charge spilling parameter for spin component 1 = 0.08%

            Orbital Populations       
     Ion    Atom   Orbital             Charge
  -------------------------------------------
     Al     1      S                    0.922
     Al     1      Px                   0.676
     Al     1      Py                   0.662
     Al     1      Pz                   0.665
     Al     2      S                    0.967
     Al     2      Px                   0.699
     Al     2      Py                   0.723
     Al     2      Pz                   0.666
     Al     3      S                    0.968
     Al     3      Px                   0.737
     Al     3      Py                   0.746
     Al     3      Pz                   0.629
     Al     4      S                    0.972
     Al     4      Px                   0.739
     Al     4      Py                   0.722
     Al     4      Pz                   0.632
     Al     5      S                    0.949
     Al     5      Px                   0.630
     Al     5      Py                   0.658
     Al     5      Pz                   0.686
     Al     6      S                    0.979
     Al     6      Px                   0.695
     Al     6      Py                   0.720
     Al     6      Pz                   0.669
     Al     7      S                    0.983
     Al     7      Px                   0.669
     Al     7      Py                   0.718
     Al     7      Pz                   0.685
     Al     8      S                    0.959
     Al     8      Px                   0.724
     Al     8      Py                   0.709
     Al     8      Pz                   0.661
     Ti     1      S                    2.000
     Ti     1      Px                   2.003
     Ti     1      Py                   2.002
     Ti     1      Pz                   2.004
     Ti     1      S                    0.321
     Ti     1      Dzz                  0.473
     Ti     1      Dzy                  0.617
     Ti     1      Dzx                  0.633
     Ti     1      Dxx-yy               0.453
     Ti     1      Dxy                  0.448
     Ti     1      Px                   0.335
     Ti     1      Py                   0.351
     Ti     1      Pz                   0.308
     Ti     2      S                    2.004
     Ti     2      Px                   2.007
     Ti     2      Py                   2.007
     Ti     2      Pz                   2.006
     Ti     2      S                    0.285
     Ti     2      Dzz                  0.587
     Ti     2      Dzy                  0.507
     Ti     2      Dzx                  0.500
     Ti     2      Dxx-yy               0.601
     Ti     2      Dxy                  0.598
     Ti     2      Px                   0.292
     Ti     2      Py                   0.303
     Ti     2      Pz                   0.337
     Ti     3      S                    2.003
     Ti     3      Px                   2.006
     Ti     3      Py                   2.006
     Ti     3      Pz                   2.005
     Ti     3      S                    0.289
     Ti     3      Dzz                  0.593
     Ti     3      Dzy                  0.496
     Ti     3      Dzx                  0.486
     Ti     3      Dxx-yy               0.608
     Ti     3      Dxy                  0.602
     Ti     3      Px                   0.299
     Ti     3      Py                   0.313
     Ti     3      Pz                   0.328
     Ti     4      S                    2.004
     Ti     4      Px                   2.007
     Ti     4      Py                   2.007
     Ti     4      Pz                   2.006
     Ti     4      S                    0.277
     Ti     4      Dzz                  0.592
     Ti     4      Dzy                  0.501
     Ti     4      Dzx                  0.492
     Ti     4      Dxx-yy               0.601
     Ti     4      Dxy                  0.606
     Ti     4      Px                   0.291
     Ti     4      Py                   0.303
     Ti     4      Pz                   0.329
     Ti     5      S                    2.003
     Ti     5      Px                   2.006
     Ti     5      Py                   2.006
     Ti     5      Pz                   2.005
     Ti     5      S                    0.292
     Ti     5      Dzz                  0.593
     Ti     5      Dzy                  0.492
     Ti     5      Dzx                  0.487
     Ti     5      Dxx-yy               0.607
     Ti     5      Dxy                  0.603
     Ti     5      Px                   0.303
     Ti     5      Py                   0.315
     Ti     5      Pz                   0.328
     Ti     6      S                    2.000
     Ti     6      Px                   2.002
     Ti     6      Py                   2.002
     Ti     6      Pz                   2.004
     Ti     6      S                    0.319
     Ti     6      Dzz                  0.469
     Ti     6      Dzy                  0.622
     Ti     6      Dzx                  0.644
     Ti     6      Dxx-yy               0.452
     Ti     6      Dxy                  0.438
     Ti     6      Px                   0.329
     Ti     6      Py                   0.346
     Ti     6      Pz                   0.307
     Ti     7      S                    2.004
     Ti     7      Px                   2.007
     Ti     7      Py                   2.006
     Ti     7      Pz                   2.006
     Ti     7      S                    0.274
     Ti     7      Dzz                  0.573
     Ti     7      Dzy                  0.497
     Ti     7      Dzx                  0.501
     Ti     7      Dxx-yy               0.602
     Ti     7      Dxy                  0.610
     Ti     7      Px                   0.313
     Ti     7      Py                   0.317
     Ti     7      Pz                   0.345
     Ti     8      S                    2.003
     Ti     8      Px                   2.006
     Ti     8      Py                   2.006
     Ti     8      Pz                   2.005
     Ti     8      S                    0.280
     Ti     8      Dzz                  0.587
     Ti     8      Dzy                  0.497
     Ti     8      Dzx                  0.498
     Ti     8      Dxx-yy               0.595
     Ti     8      Dxy                  0.593
     Ti     8      Px                   0.320
     Ti     8      Py                   0.323
     Ti     8      Pz                   0.340
     Ti     9      S                    2.000
     Ti     9      Px                   2.002
     Ti     9      Py                   2.002
     Ti     9      Pz                   2.003
     Ti     9      S                    0.307
     Ti     9      Dzz                  0.490
     Ti     9      Dzy                  0.581
     Ti     9      Dzx                  0.605
     Ti     9      Dxx-yy               0.473
     Ti     9      Dxy                  0.454
     Ti     9      Px                   0.356
     Ti     9      Py                   0.346
     Ti     9      Pz                   0.340
     Ti    10      S                    2.004
     Ti    10      Px                   2.006
     Ti    10      Py                   2.006
     Ti    10      Pz                   2.006
     Ti    10      S                    0.276
     Ti    10      Dzz                  0.578
     Ti    10      Dzy                  0.512
     Ti    10      Dzx                  0.506
     Ti    10      Dxx-yy               0.612
     Ti    10      Dxy                  0.591
     Ti    10      Px                   0.280
     Ti    10      Py                   0.299
     Ti    10      Pz                   0.335
     Ti    11      S                    2.004
     Ti    11      Px                   2.006
     Ti    11      Py                   2.007
     Ti    11      Pz                   2.006
     Ti    11      S                    0.291
     Ti    11      Dzz                  0.593
     Ti    11      Dzy                  0.494
     Ti    11      Dzx                  0.481
     Ti    11      Dxx-yy               0.596
     Ti    11      Dxy                  0.617
     Ti    11      Px                   0.322
     Ti    11      Py                   0.304
     Ti    11      Pz                   0.326
     Ti    12      S                    2.000
     Ti    12      Px                   2.002
     Ti    12      Py                   2.002
     Ti    12      Pz                   2.003
     Ti    12      S                    0.303
     Ti    12      Dzz                  0.498
     Ti    12      Dzy                  0.604
     Ti    12      Dzx                  0.587
     Ti    12      Dxx-yy               0.446
     Ti    12      Dxy                  0.469
     Ti    12      Px                   0.345
     Ti    12      Py                   0.346
     Ti    12      Pz                   0.342
     Ti    13      S                    2.003
     Ti    13      Px                   2.006
     Ti    13      Py                   2.006
     Ti    13      Pz                   2.005
     Ti    13      S                    0.269
     Ti    13      Dzz                  0.565
     Ti    13      Dzy                  0.502
     Ti    13      Dzx                  0.505
     Ti    13      Dxx-yy               0.608
     Ti    13      Dxy                  0.607
     Ti    13      Px                   0.321
     Ti    13      Py                   0.312
     Ti    13      Pz                   0.345
     Ti    14      S                    2.004
     Ti    14      Px                   2.006
     Ti    14      Py                   2.006
     Ti    14      Pz                   2.005
     Ti    14      S                    0.283
     Ti    14      Dzz                  0.585
     Ti    14      Dzy                  0.504
     Ti    14      Dzx                  0.479
     Ti    14      Dxx-yy               0.594
     Ti    14      Dxy                  0.613
     Ti    14      Px                   0.329
     Ti    14      Py                   0.312
     Ti    14      Pz                   0.337
     Ti    15      S                    2.000
     Ti    15      Px                   2.002
     Ti    15      Py                   2.002
     Ti    15      Pz                   2.003
     Ti    15      S                    0.313
     Ti    15      Dzz                  0.488
     Ti    15      Dzy                  0.603
     Ti    15      Dzx                  0.603
     Ti    15      Dxx-yy               0.465
     Ti    15      Dxy                  0.443
     Ti    15      Px                   0.351
     Ti    15      Py                   0.345
     Ti    15      Pz                   0.343
     Ti    16      S                    2.003
     Ti    16      Px                   2.005
     Ti    16      Py                   2.006
     Ti    16      Pz                   2.005
     Ti    16      S                    0.284
     Ti    16      Dzz                  0.601
     Ti    16      Dzy                  0.495
     Ti    16      Dzx                  0.484
     Ti    16      Dxx-yy               0.591
     Ti    16      Dxy                  0.601
     Ti    16      Px                   0.311
     Ti    16      Py                   0.312
     Ti    16      Pz                   0.325
     Ti    17      S                    2.003
     Ti    17      Px                   2.006
     Ti    17      Py                   2.006
     Ti    17      Pz                   2.005
     Ti    17      S                    0.294
     Ti    17      Dzz                  0.604
     Ti    17      Dzy                  0.504
     Ti    17      Dzx                  0.481
     Ti    17      Dxx-yy               0.593
     Ti    17      Dxy                  0.593
     Ti    17      Px                   0.310
     Ti    17      Py                   0.312
     Ti    17      Pz                   0.330
     Ti    18      S                    2.000
     Ti    18      Px                   2.002
     Ti    18      Py                   2.002
     Ti    18      Pz                   2.003
     Ti    18      S                    0.310
     Ti    18      Dzz                  0.487
     Ti    18      Dzy                  0.604
     Ti    18      Dzx                  0.587
     Ti    18      Dxx-yy               0.459
     Ti    18      Dxy                  0.473
     Ti    18      Px                   0.353
     Ti    18      Py                   0.344
     Ti    18      Pz                   0.346
     Ti    19      S                    2.003
     Ti    19      Px                   2.006
     Ti    19      Py                   2.006
     Ti    19      Pz                   2.005
     Ti    19      S                    0.280
     Ti    19      Dzz                  0.572
     Ti    19      Dzy                  0.498
     Ti    19      Dzx                  0.505
     Ti    19      Dxx-yy               0.610
     Ti    19      Dxy                  0.607
     Ti    19      Px                   0.303
     Ti    19      Py                   0.291
     Ti    19      Pz                   0.338
     Ti    20      S                    2.003
     Ti    20      Px                   2.006
     Ti    20      Py                   2.006
     Ti    20      Pz                   2.006
     Ti    20      S                    0.279
     Ti    20      Dzz                  0.574
     Ti    20      Dzy                  0.497
     Ti    20      Dzx                  0.508
     Ti    20      Dxx-yy               0.605
     Ti    20      Dxy                  0.607
     Ti    20      Px                   0.300
     Ti    20      Py                   0.291
     Ti    20      Pz                   0.338
     Ti    21      S                    1.999
     Ti    21      Px                   2.002
     Ti    21      Py                   2.002
     Ti    21      Pz                   2.003
     Ti    21      S                    0.313
     Ti    21      Dzz                  0.503
     Ti    21      Dzy                  0.599
     Ti    21      Dzx                  0.588
     Ti    21      Dxx-yy               0.446
     Ti    21      Dxy                  0.464
     Ti    21      Px                   0.351
     Ti    21      Py                   0.345
     Ti    21      Pz                   0.338
     Ti    22      S                    2.003
     Ti    22      Px                   2.006
     Ti    22      Py                   2.006
     Ti    22      Pz                   2.005
     Ti    22      S                    0.279
     Ti    22      Dzz                  0.580
     Ti    22      Dzy                  0.499
     Ti    22      Dzx                  0.508
     Ti    22      Dxx-yy               0.600
     Ti    22      Dxy                  0.606
     Ti    22      Px                   0.308
     Ti    22      Py                   0.292
     Ti    22      Pz                   0.338
     Ti    23      S                    2.003
     Ti    23      Px                   2.006
     Ti    23      Py                   2.006
     Ti    23      Pz                   2.005
     Ti    23      S                    0.274
     Ti    23      Dzz                  0.560
     Ti    23      Dzy                  0.506
     Ti    23      Dzx                  0.501
     Ti    23      Dxx-yy               0.607
     Ti    23      Dxy                  0.600
     Ti    23      Px                   0.302
     Ti    23      Py                   0.314
     Ti    23      Pz                   0.350
     Ti    24      S                    2.000
     Ti    24      Px                   2.002
     Ti    24      Py                   2.002
     Ti    24      Pz                   2.003
     Ti    24      S                    0.313
     Ti    24      Dzz                  0.483
     Ti    24      Dzy                  0.617
     Ti    24      Dzx                  0.599
     Ti    24      Dxx-yy               0.440
     Ti    24      Dxy                  0.467
     Ti    24      Px                   0.348
     Ti    24      Py                   0.347
     Ti    24      Pz                   0.347
     Ti    25      S                    2.003
     Ti    25      Px                   2.005
     Ti    25      Py                   2.006
     Ti    25      Pz                   2.005
     Ti    25      S                    0.275
     Ti    25      Dzz                  0.577
     Ti    25      Dzy                  0.493
     Ti    25      Dzx                  0.494
     Ti    25      Dxx-yy               0.611
     Ti    25      Dxy                  0.594
     Ti    25      Px                   0.326
     Ti    25      Py                   0.325
     Ti    25      Pz                   0.340
     Ti    26      S                    2.003
     Ti    26      Px                   2.006
     Ti    26      Py                   2.005
     Ti    26      Pz                   2.004
     Ti    26      S                    0.276
     Ti    26      Dzz                  0.604
     Ti    26      Dzy                  0.482
     Ti    26      Dzx                  0.503
     Ti    26      Dxx-yy               0.579
     Ti    26      Dxy                  0.605
     Ti    26      Px                   0.289
     Ti    26      Py                   0.288
     Ti    26      Pz                   0.341
     Ti    27      S                    2.000
     Ti    27      Px                   2.002
     Ti    27      Py                   2.003
     Ti    27      Pz                   2.003
     Ti    27      S                    0.318
     Ti    27      Dzz                  0.487
     Ti    27      Dzy                  0.607
     Ti    27      Dzx                  0.588
     Ti    27      Dxx-yy               0.443
     Ti    27      Dxy                  0.492
     Ti    27      Px                   0.335
     Ti    27      Py                   0.321
     Ti    27      Pz                   0.334
     Ti    28      S                    2.002
     Ti    28      Px                   2.004
     Ti    28      Py                   2.004
     Ti    28      Pz                   2.004
     Ti    28      S                    0.292
     Ti    28      Dzz                  0.566
     Ti    28      Dzy                  0.516
     Ti    28      Dzx                  0.536
     Ti    28      Dxx-yy               0.514
     Ti    28      Dxy                  0.562
     Ti    28      Px                   0.308
     Ti    28      Py                   0.319
     Ti    28      Pz                   0.355
     Ti    29      S                    2.002
     Ti    29      Px                   2.006
     Ti    29      Py                   2.005
     Ti    29      Pz                   2.004
     Ti    29      S                    0.301
     Ti    29      Dzz                  0.548
     Ti    29      Dzy                  0.473
     Ti    29      Dzx                  0.493
     Ti    29      Dxx-yy               0.621
     Ti    29      Dxy                  0.605
     Ti    29      Px                   0.335
     Ti    29      Py                   0.333
     Ti    29      Pz                   0.272
     Ti    30      S                    1.999
     Ti    30      Px                   2.002
     Ti    30      Py                   2.002
     Ti    30      Pz                   2.003
     Ti    30      S                    0.310
     Ti    30      Dzz                  0.493
     Ti    30      Dzy                  0.599
     Ti    30      Dzx                  0.572
     Ti    30      Dxx-yy               0.461
     Ti    30      Dxy                  0.469
     Ti    30      Px                   0.364
     Ti    30      Py                   0.358
     Ti    30      Pz                   0.336
     Ti    31      S                    2.002
     Ti    31      Px                   2.004
     Ti    31      Py                   2.004
     Ti    31      Pz                   2.004
     Ti    31      S                    0.285
     Ti    31      Dzz                  0.549
     Ti    31      Dzy                  0.486
     Ti    31      Dzx                  0.554
     Ti    31      Dxx-yy               0.551
     Ti    31      Dxy                  0.553
     Ti    31      Px                   0.305
     Ti    31      Py                   0.301
     Ti    31      Pz                   0.351
     Ti    32      S                    2.000
     Ti    32      Px                   2.002
     Ti    32      Py                   2.002
     Ti    32      Pz                   2.003
     Ti    32      S                    0.319
     Ti    32      Dzz                  0.506
     Ti    32      Dzy                  0.601
     Ti    32      Dzx                  0.597
     Ti    32      Dxx-yy               0.437
     Ti    32      Dxy                  0.479
     Ti    32      Px                   0.332
     Ti    32      Py                   0.314
     Ti    32      Pz                   0.339
     Ti    33      S                    2.002
     Ti    33      Px                   2.004
     Ti    33      Py                   2.005
     Ti    33      Pz                   2.004
     Ti    33      S                    0.287
     Ti    33      Dzz                  0.585
     Ti    33      Dzy                  0.478
     Ti    33      Dzx                  0.527
     Ti    33      Dxx-yy               0.544
     Ti    33      Dxy                  0.590
     Ti    33      Px                   0.302
     Ti    33      Py                   0.278
     Ti    33      Pz                   0.356
     Ti    34      S                    2.001
     Ti    34      Px                   2.004
     Ti    34      Py                   2.003
     Ti    34      Pz                   2.004
     Ti    34      S                    0.308
     Ti    34      Dzz                  0.517
     Ti    34      Dzy                  0.591
     Ti    34      Dzx                  0.565
     Ti    34      Dxx-yy               0.485
     Ti    34      Dxy                  0.485
     Ti    34      Px                   0.309
     Ti    34      Py                   0.345
     Ti    34      Pz                   0.339
     Ti    35      S                    2.002
     Ti    35      Px                   2.005
     Ti    35      Py                   2.004
     Ti    35      Pz                   2.004
     Ti    35      S                    0.296
     Ti    35      Dzz                  0.600
     Ti    35      Dzy                  0.535
     Ti    35      Dzx                  0.506
     Ti    35      Dxx-yy               0.555
     Ti    35      Dxy                  0.535
     Ti    35      Px                   0.303
     Ti    35      Py                   0.262
     Ti    35      Pz                   0.344
     Ti    36      S                    2.003
     Ti    36      Px                   2.006
     Ti    36      Py                   2.006
     Ti    36      Pz                   2.005
     Ti    36      S                    0.344
     Ti    36      Dzz                  0.563
     Ti    36      Dzy                  0.486
     Ti    36      Dzx                  0.483
     Ti    36      Dxx-yy               0.607
     Ti    36      Dxy                  0.619
     Ti    36      Px                   0.376
     Ti    36      Py                   0.373
     Ti    36      Pz                   0.241
     Ti    37      S                    2.001
     Ti    37      Px                   2.004
     Ti    37      Py                   2.003
     Ti    37      Pz                   2.004
     Ti    37      S                    0.304
     Ti    37      Dzz                  0.505
     Ti    37      Dzy                  0.582
     Ti    37      Dzx                  0.560
     Ti    37      Dxx-yy               0.522
     Ti    37      Dxy                  0.458
     Ti    37      Px                   0.343
     Ti    37      Py                   0.336
     Ti    37      Pz                   0.331
     Ti    38      S                    2.002
     Ti    38      Px                   2.004
     Ti    38      Py                   2.004
     Ti    38      Pz                   2.004
     Ti    38      S                    0.284
     Ti    38      Dzz                  0.551
     Ti    38      Dzy                  0.552
     Ti    38      Dzx                  0.498
     Ti    38      Dxx-yy               0.599
     Ti    38      Dxy                  0.502
     Ti    38      Px                   0.318
     Ti    38      Py                   0.306
     Ti    38      Pz                   0.347
     Ti    39      S                    2.001
     Ti    39      Px                   2.004
     Ti    39      Py                   2.004
     Ti    39      Pz                   2.004
     Ti    39      S                    0.312
     Ti    39      Dzz                  0.534
     Ti    39      Dzy                  0.602
     Ti    39      Dzx                  0.555
     Ti    39      Dxx-yy               0.493
     Ti    39      Dxy                  0.469
     Ti    39      Px                   0.305
     Ti    39      Py                   0.343
     Ti    39      Pz                   0.335
     Ti    40      S                    2.002
     Ti    40      Px                   2.004
     Ti    40      Py                   2.004
     Ti    40      Pz                   2.004
     Ti    40      S                    0.297
     Ti    40      Dzz                  0.576
     Ti    40      Dzy                  0.512
     Ti    40      Dzx                  0.511
     Ti    40      Dxx-yy               0.581
     Ti    40      Dxy                  0.530
     Ti    40      Px                   0.327
     Ti    40      Py                   0.263
     Ti    40      Pz                   0.336
     Ti    41      S                    2.002
     Ti    41      Px                   2.005
     Ti    41      Py                   2.006
     Ti    41      Pz                   2.005
     Ti    41      S                    0.296
     Ti    41      Dzz                  0.573
     Ti    41      Dzy                  0.502
     Ti    41      Dzx                  0.519
     Ti    41      Dxx-yy               0.610
     Ti    41      Dxy                  0.580
     Ti    41      Px                   0.312
     Ti    41      Py                   0.299
     Ti    41      Pz                   0.299
     Ti    42      S                    2.000
     Ti    42      Px                   2.002
     Ti    42      Py                   2.002
     Ti    42      Pz                   2.003
     Ti    42      S                    0.328
     Ti    42      Dzz                  0.474
     Ti    42      Dzy                  0.607
     Ti    42      Dzx                  0.633
     Ti    42      Dxx-yy               0.463
     Ti    42      Dxy                  0.451
     Ti    42      Px                   0.324
     Ti    42      Py                   0.366
     Ti    42      Pz                   0.310
     Ti    43      S                    2.002
     Ti    43      Px                   2.005
     Ti    43      Py                   2.005
     Ti    43      Pz                   2.004
     Ti    43      S                    0.303
     Ti    43      Dzz                  0.566
     Ti    43      Dzy                  0.507
     Ti    43      Dzx                  0.480
     Ti    43      Dxx-yy               0.574
     Ti    43      Dxy                  0.613
     Ti    43      Px                   0.332
     Ti    43      Py                   0.330
     Ti    43      Pz                   0.282
     Ti    44      S                    2.003
     Ti    44      Px                   2.005
     Ti    44      Py                   2.006
     Ti    44      Pz                   2.005
     Ti    44      S                    0.306
     Ti    44      Dzz                  0.567
     Ti    44      Dzy                  0.503
     Ti    44      Dzx                  0.485
     Ti    44      Dxx-yy               0.589
     Ti    44      Dxy                  0.597
     Ti    44      Px                   0.351
     Ti    44      Py                   0.334
     Ti    44      Pz                   0.293
     Ti    45      S                    2.000
     Ti    45      Px                   2.002
     Ti    45      Py                   2.002
     Ti    45      Pz                   2.003
     Ti    45      S                    0.331
     Ti    45      Dzz                  0.466
     Ti    45      Dzy                  0.625
     Ti    45      Dzx                  0.619
     Ti    45      Dxx-yy               0.463
     Ti    45      Dxy                  0.449
     Ti    45      Px                   0.324
     Ti    45      Py                   0.353
     Ti    45      Pz                   0.314
     Ti    46      S                    2.003
     Ti    46      Px                   2.006
     Ti    46      Py                   2.006
     Ti    46      Pz                   2.004
     Ti    46      S                    0.293
     Ti    46      Dzz                  0.612
     Ti    46      Dzy                  0.503
     Ti    46      Dzx                  0.475
     Ti    46      Dxx-yy               0.607
     Ti    46      Dxy                  0.592
     Ti    46      Px                   0.321
     Ti    46      Py                   0.295
     Ti    46      Pz                   0.294
     Ti    47      S                    2.000
     Ti    47      Px                   2.003
     Ti    47      Py                   2.003
     Ti    47      Pz                   2.004
     Ti    47      S                    0.312
     Ti    47      Dzz                  0.507
     Ti    47      Dzy                  0.579
     Ti    47      Dzx                  0.596
     Ti    47      Dxx-yy               0.474
     Ti    47      Dxy                  0.486
     Ti    47      Px                   0.323
     Ti    47      Py                   0.280
     Ti    47      Pz                   0.321
     Ti    48      S                    2.004
     Ti    48      Px                   2.007
     Ti    48      Py                   2.007
     Ti    48      Pz                   2.006
     Ti    48      S                    0.270
     Ti    48      Dzz                  0.571
     Ti    48      Dzy                  0.526
     Ti    48      Dzx                  0.499
     Ti    48      Dxx-yy               0.598
     Ti    48      Dxy                  0.589
     Ti    48      Px                   0.313
     Ti    48      Py                   0.302
     Ti    48      Pz                   0.354
     Ti    49      S                    2.003
     Ti    49      Px                   2.006
     Ti    49      Py                   2.006
     Ti    49      Pz                   2.006
     Ti    49      S                    0.265
     Ti    49      Dzz                  0.572
     Ti    49      Dzy                  0.502
     Ti    49      Dzx                  0.509
     Ti    49      Dxx-yy               0.598
     Ti    49      Dxy                  0.616
     Ti    49      Px                   0.309
     Ti    49      Py                   0.288
     Ti    49      Pz                   0.338
     Ti    50      S                    1.999
     Ti    50      Px                   2.002
     Ti    50      Py                   2.001
     Ti    50      Pz                   2.003
     Ti    50      S                    0.310
     Ti    50      Dzz                  0.495
     Ti    50      Dzy                  0.577
     Ti    50      Dzx                  0.605
     Ti    50      Dxx-yy               0.471
     Ti    50      Dxy                  0.454
     Ti    50      Px                   0.325
     Ti    50      Py                   0.358
     Ti    50      Pz                   0.335
     Ti    51      S                    2.003
     Ti    51      Px                   2.005
     Ti    51      Py                   2.007
     Ti    51      Pz                   2.005
     Ti    51      S                    0.283
     Ti    51      Dzz                  0.577
     Ti    51      Dzy                  0.517
     Ti    51      Dzx                  0.461
     Ti    51      Dxx-yy               0.577
     Ti    51      Dxy                  0.629
     Ti    51      Px                   0.315
     Ti    51      Py                   0.297
     Ti    51      Pz                   0.337
     Ti    52      S                    2.003
     Ti    52      Px                   2.007
     Ti    52      Py                   2.005
     Ti    52      Pz                   2.006
     Ti    52      S                    0.275
     Ti    52      Dzz                  0.577
     Ti    52      Dzy                  0.496
     Ti    52      Dzx                  0.505
     Ti    52      Dxx-yy               0.604
     Ti    52      Dxy                  0.607
     Ti    52      Px                   0.308
     Ti    52      Py                   0.289
     Ti    52      Pz                   0.343
     Ti    53      S                    2.000
     Ti    53      Px                   2.002
     Ti    53      Py                   2.003
     Ti    53      Pz                   2.003
     Ti    53      S                    0.316
     Ti    53      Dzz                  0.501
     Ti    53      Dzy                  0.591
     Ti    53      Dzx                  0.606
     Ti    53      Dxx-yy               0.467
     Ti    53      Dxy                  0.473
     Ti    53      Px                   0.342
     Ti    53      Py                   0.281
     Ti    53      Pz                   0.337
     Ti    54      S                    2.003
     Ti    54      Px                   2.007
     Ti    54      Py                   2.006
     Ti    54      Pz                   2.005
     Ti    54      S                    0.273
     Ti    54      Dzz                  0.579
     Ti    54      Dzy                  0.509
     Ti    54      Dzx                  0.470
     Ti    54      Dxx-yy               0.608
     Ti    54      Dxy                  0.609
     Ti    54      Px                   0.304
     Ti    54      Py                   0.319
     Ti    54      Pz                   0.348
     Ti    55      S                    2.003
     Ti    55      Px                   2.007
     Ti    55      Py                   2.006
     Ti    55      Pz                   2.005
     Ti    55      S                    0.254
     Ti    55      Dzz                  0.588
     Ti    55      Dzy                  0.497
     Ti    55      Dzx                  0.484
     Ti    55      Dxx-yy               0.597
     Ti    55      Dxy                  0.620
     Ti    55      Px                   0.300
     Ti    55      Py                   0.309
     Ti    55      Pz                   0.353
     Ti    56      S                    2.001
     Ti    56      Px                   2.004
     Ti    56      Py                   2.003
     Ti    56      Pz                   2.003
     Ti    56      S                    0.287
     Ti    56      Dzz                  0.551
     Ti    56      Dzy                  0.517
     Ti    56      Dzx                  0.515
     Ti    56      Dxx-yy               0.532
     Ti    56      Dxy                  0.578
     Ti    56      Px                   0.308
     Ti    56      Py                   0.300
     Ti    56      Pz                   0.345
     Ti    57      S                    2.004
     Ti    57      Px                   2.006
     Ti    57      Py                   2.007
     Ti    57      Pz                   2.006
     Ti    57      S                    0.291
     Ti    57      Dzz                  0.565
     Ti    57      Dzy                  0.512
     Ti    57      Dzx                  0.497
     Ti    57      Dxx-yy               0.598
     Ti    57      Dxy                  0.607
     Ti    57      Px                   0.320
     Ti    57      Py                   0.311
     Ti    57      Pz                   0.346
     Ti    58      S                    2.001
     Ti    58      Px                   2.003
     Ti    58      Py                   2.004
     Ti    58      Pz                   2.004
     Ti    58      S                    0.298
     Ti    58      Dzz                  0.516
     Ti    58      Dzy                  0.528
     Ti    58      Dzx                  0.582
     Ti    58      Dxx-yy               0.445
     Ti    58      Dxy                  0.550
     Ti    58      Px                   0.361
     Ti    58      Py                   0.319
     Ti    58      Pz                   0.339
     Ti    59      S                    2.002
     Ti    59      Px                   2.004
     Ti    59      Py                   2.004
     Ti    59      Pz                   2.004
     Ti    59      S                    0.283
     Ti    59      Dzz                  0.569
     Ti    59      Dzy                  0.497
     Ti    59      Dzx                  0.531
     Ti    59      Dxx-yy               0.540
     Ti    59      Dxy                  0.572
     Ti    59      Px                   0.300
     Ti    59      Py                   0.310
     Ti    59      Pz                   0.345
     Ti    60      S                    2.003
     Ti    60      Px                   2.006
     Ti    60      Py                   2.006
     Ti    60      Pz                   2.005
     Ti    60      S                    0.289
     Ti    60      Dzz                  0.588
     Ti    60      Dzy                  0.480
     Ti    60      Dzx                  0.496
     Ti    60      Dxx-yy               0.599
     Ti    60      Dxy                  0.603
     Ti    60      Px                   0.317
     Ti    60      Py                   0.319
     Ti    60      Pz                   0.334
     Ti    61      S                    2.001
     Ti    61      Px                   2.004
     Ti    61      Py                   2.005
     Ti    61      Pz                   2.004
     Ti    61      S                    0.300
     Ti    61      Dzz                  0.539
     Ti    61      Dzy                  0.508
     Ti    61      Dzx                  0.597
     Ti    61      Dxx-yy               0.474
     Ti    61      Dxy                  0.541
     Ti    61      Px                   0.337
     Ti    61      Py                   0.283
     Ti    61      Pz                   0.344
     Ti    62      S                    2.003
     Ti    62      Px                   2.006
     Ti    62      Py                   2.004
     Ti    62      Pz                   2.005
     Ti    62      S                    0.290
     Ti    62      Dzz                  0.600
     Ti    62      Dzy                  0.485
     Ti    62      Dzx                  0.492
     Ti    62      Dxx-yy               0.622
     Ti    62      Dxy                  0.541
     Ti    62      Px                   0.314
     Ti    62      Py                   0.333
     Ti    62      Pz                   0.328
     Ti    63      S                    2.001
     Ti    63      Px                   2.004
     Ti    63      Py                   2.004
     Ti    63      Pz                   2.004
     Ti    63      S                    0.309
     Ti    63      Dzz                  0.506
     Ti    63      Dzy                  0.589
     Ti    63      Dzx                  0.555
     Ti    63      Dxx-yy               0.504
     Ti    63      Dxy                  0.504
     Ti    63      Px                   0.294
     Ti    63      Py                   0.324
     Ti    63      Pz                   0.340
[...]
             Ti 23 -- Ti 43                  0.31        2.67398
              Al 8 -- Ti 70                  0.32        2.67476
             Ti 7  -- Ti 17                  0.31        2.67536
              Al 7 -- Ti 26                  0.40        2.67953
             Ti 67 -- Ti 68                  0.33        2.68021
             Ti 8  -- Ti 33                  0.28        2.68023
             Ti 11 -- Ti 35                  0.28        2.68258
             Ti 51 -- Ti 60                  0.30        2.68326
             Ti 4  -- Ti 14                  0.31        2.68593
              Al 6 -- Ti 41                  0.39        2.68650
             Ti 14 -- Ti 38                  0.26        2.68660
              Al 2 -- Ti 33                  0.35        2.68861
              Al 7 -- Ti 46                  0.41        2.69294
              Al 3 -- Ti 61                  0.31        2.69795
             Ti 43 -- Ti 44                  0.32        2.70185
             Ti 17 -- Ti 40                  0.27        2.70364
             Ti 59 -- Ti 68                  0.28        2.70529
              Al 6 -- Ti 35                  0.35        2.71010
             Ti 44 -- Ti 67                  0.32        2.71079
              Al 4 -- V 2                    0.31        2.71092
             Ti 3  -- Ti 28                  0.27        2.71226
             Ti 38 -- Ti 44                  0.25        2.71390
             Ti 40 -- Ti 46                  0.26        2.71725
             Ti 59 -- Ti 60                  0.26        2.72250
             Ti 28 -- Ti 29                  0.22        2.72777
             Ti 5  -- Ti 31                  0.29        2.73305
              Al 3 -- Ti 39                  0.31        2.73437
             Ti 29 -- V 2                    0.19        2.73673
             Ti 56 -- Ti 65                  0.27        2.74072
              Al 3 -- Ti 69                  0.29        2.74668
             Ti 16 -- Ti 62                  0.30        2.75099
             Ti 59 -- V 3                    0.16        2.75252
              Al 4 -- Ti 63                  0.33        2.75704
              Al 2 -- V 1                    0.29        2.76296
             Ti 36 -- Ti 58                  0.22        2.77042
              Al 3 -- Al 4                   0.21        2.77223
             Ti 35 -- Ti 36                  0.20        2.78116
              Al 3 -- Ti 38                  0.28        2.78175
              Al 3 -- V 3                    0.26        2.78411
             Ti 36 -- Ti 66                  0.22        2.78844
              Al 2 -- Ti 61                  0.28        2.78883
              Al 4 -- Ti 34                  0.33        2.79727
              Al 4 -- V 3                    0.29        2.80228
              Al 4 -- Ti 33                  0.28        2.80250
             Ti 69 -- V 3                    0.17        2.80653
             Ti 58 -- V 1                    0.18        2.80914
             Ti 58 -- V 2                    0.31        2.81268
              Al 7 -- Ti 41                  0.29        2.81778
              Al 6 -- Ti 44                  0.26        2.81922
             Ti 36 -- Ti 37                  0.22        2.81967
              Al 6 -- Ti 46                  0.29        2.82158
              Al 4 -- Ti 56                  0.21        2.82705
             Ti 28 -- Ti 31                  0.19        2.82900
             Ti 57 -- Ti 62                  0.10        2.82935
              Al 8 -- Ti 67                  0.24        2.83106
             Ti 20 -- Ti 23                  0.12        2.83730
             Ti 36 -- Ti 59                  0.23        2.83893
             Ti 48 -- Ti 54                  0.12        2.83986
             Ti 49 -- Ti 52                  0.04        2.84180
             Ti 28 -- Ti 36                  0.17        2.84301
             Ti 30 -- V 1                    0.22        2.84359
              Al 8 -- Ti 64                  0.28        2.84633
             Ti 34 -- Ti 37                  0.30        2.84854
             Ti 65 -- Ti 68                  0.10        2.84874
             Ti 64 -- Ti 66                  0.18        2.84967
              Al 3 -- Ti 31                  0.24        2.85419
             Ti 9  -- Ti 15                  0.39        2.85765
             Ti 63 -- Ti 66                  0.26        2.85869
             Ti 37 -- Ti 39                  0.29        2.85938
             Ti 1  -- Ti 6                   0.37        2.85962
             Ti 54 -- V 2                    0.21        2.86386
             Ti 42 -- Ti 45                  0.36        2.86401
              Al 7 -- Ti 43                  0.23        2.86500
             Ti 14 -- Ti 17                  0.12        2.86555
             Ti 38 -- Ti 40                  0.15        2.86560
             Ti 19 -- Ti 22                  0.09        2.86645
             Ti 56 -- V 3                    0.20        2.86651
             Ti 47 -- Ti 53                  0.29        2.86884
             Ti 42 -- Ti 44                  0.22        2.87024
             Ti 18 -- Ti 24                  0.37        2.87039
             Ti 61 -- Ti 62                  0.05        2.87104
             Ti 30 -- Ti 32                  0.30        2.87118
             Ti 61 -- V 2                    0.30        2.87147
             Ti 29 -- V 1                    0.17        2.87277
              Al 4 -- Ti 40                  0.26        2.87334
             Ti 2  -- Ti 7                   0.11        2.87336
             Ti 2  -- Ti 37                  0.18        2.87362
             Ti 3  -- Ti 8                   0.08        2.87377
             Ti 65 -- Ti 66                  0.16        2.87440
             Ti 11 -- Ti 17                  0.08        2.87463
             Ti 66 -- Ti 69                  0.28        2.87469
             Ti 10 -- Ti 13                  0.09        2.87529
             Ti 27 -- Ti 30                  0.36        2.87566
             Ti 48 -- Ti 51                  0.08        2.87611
             Ti 11 -- Ti 37                  0.16        2.87632
             Ti 67 -- Ti 69                  0.19        2.87644
             Ti 18 -- Ti 21                  0.32        2.87703
             Ti 4  -- Ti 7                   0.11        2.87838
             Ti 48 -- Ti 58                  0.11        2.87853
              Al 3 -- Ti 40                  0.25        2.87883
             Ti 13 -- Ti 16                  0.08        2.87958
              Al 5 -- Ti 45                  0.40        2.87987
             Ti 22 -- Ti 25                  0.09        2.87991
             Ti 50 -- Ti 53                  0.35        2.88020
             Ti 3  -- Ti 5                   0.08        2.88046
             Ti 5  -- Ti 8                   0.08        2.88055
             Ti 10 -- Ti 16                  0.08        2.88130
             Ti 2  -- Ti 4                   0.08        2.88309
             Ti 51 -- Ti 58                  0.12        2.88416
             Ti 35 -- Ti 38                  0.23        2.88421
             Ti 35 -- Ti 40                  0.17        2.88498
              Al 7 -- Ti 47                  0.25        2.88501
             Ti 12 -- Ti 15                  0.35        2.88564
              Al 1 -- Ti 1                   0.32        2.88673
             Ti 47 -- Ti 50                  0.33        2.88680
             Ti 21 -- Ti 65                  0.21        2.88692
              Al 1 -- Ti 6                   0.32        2.88814
             Ti 27 -- Ti 32                  0.32        2.88836
             Ti 21 -- Ti 24                  0.34        2.88852
             Ti 19 -- Ti 25                  0.08        2.88862
             Ti 28 -- Ti 33                  0.18        2.88933
             Ti 4  -- Ti 39                  0.14        2.88954
             Ti 61 -- V 3                    0.17        2.89034
              Al 3 -- Ti 59                  0.20        2.89091
              Al 5 -- Ti 42                  0.33        2.89147
             Ti 65 -- Ti 70                  0.13        2.89162
             Ti 48 -- V 2                    0.16        2.89195
             Ti 9  -- Ti 12                  0.32        2.89198
              Al 8 -- Ti 63                  0.25        2.89402
             Ti 52 -- Ti 55                  0.07        2.89441
             Ti 11 -- Ti 14                  0.11        2.89505
             Ti 68 -- Ti 70                  0.10        2.89553
              Al 6 -- Ti 66                  0.23        2.89580
             Ti 23 -- Ti 26                  0.14        2.89627
             Ti 14 -- Ti 39                  0.15        2.89677
             Ti 49 -- Ti 55                  0.07        2.89900
             Ti 24 -- Ti 68                  0.14        2.90228
             Ti 20 -- Ti 26                  0.11        2.90254
              Al 3 -- Ti 33                  0.23        2.90266
             Ti 62 -- V 2                    0.09        2.90348
             Ti 63 -- Ti 69                  0.26        2.90406
             Ti 57 -- Ti 60                  0.12        2.90499
             Ti 63 -- Ti 70                  0.10        2.90569
              Al 4 -- Ti 36                  0.19        2.91078
             Ti 44 -- Ti 50                  0.16        2.91141
             Ti 6  -- Ti 67                  0.13        2.91162
              Al 2 -- Ti 32                  0.26        2.91191
              Al 7 -- Ti 27                  0.24        2.91336
             Ti 32 -- Ti 43                  0.13        2.91401
             Ti 31 -- Ti 36                  0.17        2.91645
             Ti 31 -- Ti 33                  0.17        2.91666
             Ti 33 -- V 2                    0.17        2.91732
             Ti 60 -- Ti 62                  0.10        2.91893
             Ti 27 -- Ti 29                  0.16        2.91903
             Ti 18 -- Ti 70                  0.13        2.91973
             Ti 28 -- V 2                    0.17        2.92195
              Al 4 -- Ti 28                  0.19        2.92205
             Ti 44 -- Ti 66                  0.16        2.92485
             Ti 51 -- Ti 54                  0.14        2.92520
             Ti 43 -- Ti 53                  0.13        2.92528
             Ti 18 -- Ti 62                  0.15        2.92608
             Ti 53 -- Ti 67                  0.17        2.92678
             Ti 5  -- Ti 37                  0.14        2.92722
             Ti 34 -- Ti 39                  0.32        2.92760
             Ti 46 -- Ti 53                  0.16        2.92842
             Ti 36 -- Ti 38                  0.19        2.93014
             Ti 17 -- Ti 34                  0.15        2.93154
             Ti 4  -- Ti 12                  0.16        2.93324
             Ti 4  -- Ti 37                  0.15        2.93360
             Ti 7  -- Ti 39                  0.15        2.93422
              Al 6 -- Ti 47                  0.24        2.93498
             Ti 3  -- Ti 30                  0.18        2.93554
             Ti 1  -- Ti 64                  0.15        2.93620
              Al 8 -- Ti 53                  0.20        2.93629
             Ti 9  -- Ti 54                  0.16        2.93675
             Ti 6  -- Ti 25                  0.13        2.93752
             Ti 66 -- Ti 68                  0.19        2.93779
             Ti 8  -- Ti 39                  0.14        2.93792
             Ti 7  -- Ti 34                  0.14        2.93806
             Ti 34 -- Ti 35                  0.14        2.93874
             Ti 45 -- Ti 46                  0.17        2.94052
             Ti 66 -- Ti 67                  0.14        2.94119
             Ti 12 -- Ti 57                  0.16        2.94126
             Ti 36 -- Ti 56                  0.18        2.94144
              Al 1 -- Ti 64                  0.19        2.94165
              Al 8 -- Ti 1                   0.21        2.94247
             Ti 18 -- Ti 20                  0.15        2.94453
             Ti 15 -- Ti 60                  0.15        2.94505
              Al 2 -- V 2                    0.20        2.94515
             Ti 8  -- Ti 27                  0.12        2.94636
             Ti 56 -- Ti 63                  0.15        2.94649
             Ti 46 -- Ti 63                  0.16        2.94658
             Ti 12 -- Ti 52                  0.12        2.94661
              Al 6 -- Ti 63                  0.21        2.94686
             Ti 28 -- Ti 34                  0.14        2.94714
             Ti 11 -- Ti 34                  0.15        2.94803
             Ti 51 -- Ti 61                  0.13        2.94869
             Ti 41 -- Ti 42                  0.15        2.94870
             Ti 3  -- Ti 34                  0.13        2.94880
             Ti 3  -- Ti 37                  0.15        2.94922
             Ti 47 -- Ti 64                  0.12        2.95036
             Ti 31 -- Ti 37                  0.15        2.95050
             Ti 5  -- Ti 39                  0.12        2.95064
             Ti 2  -- Ti 34                  0.12        2.95077
              Al 8 -- Ti 69                  0.23        2.95123
             Ti 68 -- Ti 69                  0.09        2.95189
             Ti 5  -- Ti 32                  0.16        2.95237
              Al 2 -- Ti 53                  0.24        2.95486
              Al 5 -- Al 6                   0.21        2.95514
             Ti 69 -- Ti 70                  0.07        2.95531
             Ti 28 -- Ti 58                  0.09        2.95579
             Ti 24 -- Ti 62                  0.14        2.95586
             Ti 57 -- Ti 58                  0.14        2.95640
             Ti 33 -- Ti 61                  0.12        2.95642
              Al 3 -- Ti 36                  0.17        2.95705
             Ti 59 -- Ti 61                  0.14        2.95723
             Ti 64 -- Ti 67                  0.11        2.95776
             Ti 41 -- Ti 43                  0.09        2.96053
             Ti 59 -- Ti 66                  0.16        2.96058
             Ti 9  -- Ti 16                  0.14        2.96228
             Ti 58 -- Ti 61                  0.26        2.96259
             Ti 60 -- Ti 61                  0.15        2.96310
             Ti 29 -- Ti 47                  0.15        2.96323
             Ti 44 -- Ti 69                  0.12        2.96450
             Ti 9  -- Ti 17                  0.15        2.96507
             Ti 35 -- Ti 63                  0.16        2.96806
             Ti 1  -- Ti 7                   0.11        2.96938
             Ti 1  -- Ti 19                  0.13        2.96938
             Ti 10 -- Ti 42                  0.11        2.96939
             Ti 16 -- Ti 24                  0.16        2.96944
             Ti 2  -- Ti 9                   0.12        2.96962
             Ti 24 -- Ti 70                  0.13        2.96994
             Ti 27 -- Ti 41                  0.18        2.97021
             Ti 63 -- Ti 65                  0.09        2.97078
              Al 1 -- Ti 22                  0.18        2.97141
             Ti 9  -- Ti 57                  0.11        2.97189
             Ti 56 -- V 2                    0.17        2.97211
             Ti 37 -- Ti 38                  0.11        2.97230
             Ti 22 -- Ti 32                  0.14        2.97336
              Al 5 -- Ti 46                  0.21        2.97364
             Ti 21 -- Ti 68                  0.17        2.97367
              Al 5 -- Ti 11                  0.19        2.97471
             Ti 14 -- Ti 42                  0.17        2.97552
             Ti 12 -- Ti 14                  0.12        2.97610
             Ti 24 -- Ti 60                  0.13        2.97624
             Ti 51 -- Ti 53                  0.13        2.97634
             Ti 12 -- Ti 48                  0.12        2.97657
              Al 1 -- Ti 5                   0.18        2.97659
             Ti 38 -- Ti 39                  0.13        2.97704
              Al 5 -- Ti 17                  0.17        2.97706
             Ti 9  -- Ti 10                  0.13        2.97745
             Ti 15 -- Ti 55                  0.16        2.97753
             Ti 63 -- Ti 64                  0.13        2.97794
              Al 1 -- Ti 2                   0.15        2.97822
             Ti 46 -- Ti 47                  0.13        2.97953
              Al 8 -- Ti 6                   0.20        2.98005
             Ti 15 -- Ti 54                  0.14        2.98009
             Ti 15 -- Ti 17                  0.12        2.98043
             Ti 15 -- Ti 16                  0.14        2.98061
             Ti 16 -- Ti 18                  0.15        2.98115
             Ti 43 -- Ti 45                  0.21        2.98201
             Ti 31 -- Ti 61                  0.10        2.98202
             Ti 9  -- Ti 11                  0.15        2.98220
             Ti 21 -- Ti 60                  0.16        2.98355
              Al 7 -- Ti 32                  0.19        2.98453
             Ti 41 -- Ti 50                  0.14        2.98539
             Ti 39 -- Ti 40                  0.14        2.98596
              Al 8 -- Ti 47                  0.18        2.98599
             Ti 8  -- Ti 34                  0.12        2.98744
             Ti 58 -- Ti 60                  0.16        2.98800
             Ti 53 -- Ti 55                  0.07        2.98867
             Ti 21 -- Ti 57                  0.16        2.99022
             Ti 17 -- Ti 39                  0.11        2.99087
             Ti 40 -- Ti 69                  0.14        2.99141
             Ti 23 -- Ti 45                  0.12        2.99155
             Ti 26 -- Ti 27                  0.16        2.99174
             Ti 6  -- Ti 7                   0.11        2.99194
             Ti 4  -- Ti 6                   0.13        2.99306
             Ti 18 -- Ti 57                  0.14        2.99354
             Ti 47 -- Ti 49                  0.10        2.99402
             Ti 19 -- Ti 30                  0.14        2.99407
             Ti 10 -- Ti 12                  0.12        2.99409
             Ti 1  -- Ti 55                  0.13        2.99425
             Ti 44 -- Ti 46                  0.12        2.99469
             Ti 18 -- Ti 56                  0.14        2.99476
              Al 1 -- Ti 49                  0.17        2.99481
             Ti 44 -- Ti 45                  0.14        2.99487
             Ti 52 -- Ti 53                  0.13        2.99531
             Ti 38 -- Ti 69                  0.13        2.99545
             Ti 14 -- Ti 45                  0.14        2.99573
             Ti 10 -- Ti 18                  0.14        2.99584
             Ti 58 -- Ti 59                  0.16        2.99625
             Ti 46 -- Ti 69                  0.14        2.99626
              Al 6 -- Ti 50                  0.16        2.99880
             Ti 13 -- Ti 15                  0.13        2.99922
             Ti 50 -- Ti 67                  0.11        2.99975
             Ti 31 -- Ti 58                  0.08        2.99975
             Ti 14 -- Ti 37                  0.13        2.99983
             Ti 26 -- Ti 32                  0.16        2.99999
======================================================================

 
 A BibTeX formatted list of references used in this run has been written to 
 sqs_hex_sc3x3x3_Ti70Al8V3_frame0_19.bib
 
Initialisation time =     23.24 s
Calculation time    =   6566.87 s
Finalisation time   =      0.49 s
Total time          =   6590.61 s
Peak Memory Use     = 2630076 kB
 
Overall parallel efficiency rating: Mediocre (57%)
 
Data was distributed by:-
G-vector (16-way); efficiency rating: Mediocre (59%)
k-point (15-way); efficiency rating: Excellent (95%)
