 +-------------------------------------------------+
 |                                                 |
 |      CCC   AA    SSS  TTTTT  EEEEE  PPPP        |
 |     C     A  A  S       T    E      P   P       |
 |     C     AAAA   SS     T    EEE    PPPP        |
 |     C     A  A     S    T    E      P           |
 |      CCC  A  A  SSS     T    EEEEE  P           |
 |                                                 |
 +-------------------------------------------------+
 |                                                 |
 | Welcome to Academic Release CASTEP version 24.1 |
 | Ab Initio Total Energy Program                  |
 |                                                 |
 | Authors:                                        |
 | M. Segall, M. Probert, C. Pickard, P. Hasnip,   |
 | S. Clark, K. Refson, J. R. Yates,               |
 | A. Bartok-Partay, M. Payne                      |
 |                                                 |
 | Contributors:                                   |
 | P. Lindan, P. Haynes, J. White, V. Milman,      |
 | N. Govind, M. Gibson, P. Tulip, V. Cocula,      |
 | B. Montanari, D. Quigley, M. Glover,            |
 | L. Bernasconi, A. Perlov, M. Plummer,           |
 | E. McNellis, J. Meyer, J. Gale, D. Jochym       |
 | J. Aarons, B. Walker, R. Gillen, D. Jones       |
 | T. Green, I. J. Bush, C. J. Armstrong,          |
 | E. J. Higgins, E. L. Brown, M. S. McFly,        |
 | J. Wilkins, B-C. Shih, P. J. P. Byrne,          |
 | R. J. Maurer, J. C. Womack, J. Dziedzic,        |
 | L. LeBlanc, T. K. Stenczel, J. Kermode,         |
 | S. Sturniolo, B. Shi, B. Durham, M. Evans,      |
 | M. J. Smith, A. Tamerus, Z. Hawkhead,           |
 | V. Ravindran, T. Hollins, S. A. Joyce,          |
 | R. T. Strong, A. M. Reilly                      |
 |                                                 |
 | Copyright (c) 2000 - 2023                       |
 |                                                 |
 |     Distributed under license from Cambridge    |
 |     Enterprise for academic use only.           |
 |                                                 |
 | Please cite                                     |
 |                                                 |
 |     "First principles methods using CASTEP"     |
 |                                                 |
 |         Zeitschrift fuer Kristallographie       |
 |           220(5-6) pp. 567-570 (2005)           |
 |                                                 |
 | S. J. Clark, M. D. Segall, C. J. Pickard,       |
 | P. J. Hasnip, M. J. Probert, K. Refson,         |
 | M. C. Payne                                     |
 |                                                 |
 |       in all publications arising from          |
 |              your use of CASTEP                 |
 |                                                 |
 +-------------------------------------------------+
 |                                                 |
 |              http://www.castep.org              |
 |                                                 |
 +-------------------------------------------------+



 Compiled for linux_x86_64_gfortran10 on Tue, 02 May 2023 15:31:46 +0100
 from code version db08e394c+  default  Mon May 1 16:40:39 2023 +0100
 Compiler: GNU Fortran 10.2.0; Optimisation: fast
 Comms   : Open MPI v4.0.5
 MATHLIBS: openblas (LAPACK version 3.9.0)
 FFT Lib : fftw3 version fftw-3.3.8-sse2-avx-avx2-avx2_128
 Fundamental constants values: CODATA 2018

 Run started: Wed, 07 Feb 2024 19:11:57 +0000
 Info: number of up-spin electrons is not equal to the
       number of down-spins but spin_polarized=false
     - consider setting spin_polarized=true.

 Atomic calculation performed for Al: 1s2 2s2 2p6 3s2 3p1

 Converged in 54 iterations to an ae energy of -6603.783 eV

   ============================================================                
   | Pseudopotential Report - Date of generation  7-02-2024   |                
   ------------------------------------------------------------                
   | Element: Al Ionic charge:  3.00 Level of theory: PBE     |                
   | Atomic Solver: Koelling-Harmon                           |                
   |                                                          |                
   |               Reference Electronic Structure             |                
   |         Orbital         Occupation         Energy        |                
   |            3s              2.000           -0.285        |                
   |            3p              1.000           -0.100        |                
   |                                                          |                
   |                 Pseudopotential Definition               |                
   |        Beta     l      e      Rc     scheme   norm       |                
   |          1      0   -0.285   2.192     qc      0         |                
   |          2      0    0.250   2.192     qc      0         |                
   |          3      1   -0.100   2.192     qc      0         |                
   |          4      1    0.250   2.192     qc      0         |                
   |          5      2    0.000   2.000     qc      0         |                
   |          6      2    0.250   2.000     qc      0         |                
   |         loc     3    0.000   2.192     pn      0         |                
   |                                                          |                
   | Augmentation charge Rinner = 1.398                       |                
   | Partial core correction Rc = 1.398                       |                
   ------------------------------------------------------------                
   | "3|2.2|2.2|1.4|4|5|5|30:31:32U2U2"                       |                
   ------------------------------------------------------------                
   |      Author: Chris J. Pickard, Cambridge University      |                
   ============================================================                

 Atomic calculation performed for Ti: 1s2 2s2 2p6 3s2 3p6 3d2 4s2

 Converged in 79 iterations to an ae energy of -23226.658 eV

   ============================================================                
   | Pseudopotential Report - Date of generation  7-02-2024   |                
   ------------------------------------------------------------                
   | Element: Ti Ionic charge: 12.00 Level of theory: PBE     |                
   | Atomic Solver: Koelling-Harmon                           |                
   |                                                          |                
   |               Reference Electronic Structure             |                
   |         Orbital         Occupation         Energy        |                
   |            3s              2.000           -2.302        |                
   |            3p              6.000           -1.428        |                
   |            4s              2.000           -0.164        |                
   |            3d              2.000           -0.157        |                
   |                                                          |                
   |                 Pseudopotential Definition               |                
   |        Beta     l      e      Rc     scheme   norm       |                
   |          1      0   -2.302   1.793     qc      0         |                
   |          2      0   -0.164   1.793     qc      0         |                
   |          3      0    0.250   1.793     qc      0         |                
   |          4      1   -1.428   1.793     qc      0         |                
   |          5      1    0.250   1.793     qc      0         |                
   |          6      2   -0.157   1.793     qc      0         |                
   |          7      2    0.250   1.793     qc      0         |                
   |         loc     3    0.000   1.793     pn      0         |                
   |                                                          |                
   | Augmentation charge Rinner = 1.263                       |                
   | Partial core correction Rc = 1.263                       |                
   ------------------------------------------------------------                
   | "3|1.8|9|10|11|30U:40:31:32(qc=5.5)"                     |                
   ------------------------------------------------------------                
   |      Author: Chris J. Pickard, Cambridge University      |                
   ============================================================                

 Atomic calculation performed for V: 1s2 2s2 2p6 3s2 3p6 3d3 4s2

 Converged in 81 iterations to an ae energy of -25823.733 eV

   ============================================================                
   | Pseudopotential Report - Date of generation  7-02-2024   |                
   ------------------------------------------------------------                
   | Element: V Ionic charge: 13.00 Level of theory: PBE      |                
   | Atomic Solver: Koelling-Harmon                           |                
   |                                                          |                
   |               Reference Electronic Structure             |                
   |         Orbital         Occupation         Energy        |                
   |            3s              2.000           -2.581        |                
   |            3p              6.000           -1.618        |                
   |            3d              3.000           -0.190        |                
   |            4s              2.000           -0.173        |                
   |                                                          |                
   |                 Pseudopotential Definition               |                
   |        Beta     l      e      Rc     scheme   norm       |                
   |          1      0   -2.581   1.803     qc      0         |                
   |          2      0   -0.173   1.803     qc      0         |                
   |          3      0    0.250   1.803     qc      0         |                
   |          4      1   -1.618   1.803     qc      0         |                
   |          5      1    0.250   1.803     qc      0         |                
   |          6      2   -0.190   1.803     qc      0         |                
   |          7      2    0.250   1.803     qc      0         |                
   |         loc     3    0.000   1.803     pn      0         |                
   |                                                          |                
   | Augmentation charge Rinner = 0.600                       |                
   | Partial core correction Rc = 0.600                       |                
   ------------------------------------------------------------                
   | "3|1.8|1.8|0.6|12|14|16|30U:40:31:32(qc=7)"              |                
   ------------------------------------------------------------                
   |      Author: Chris J. Pickard, Cambridge University      |                
   ============================================================                

 Pseudo atomic calculation performed for Al 3s2 3p1

 Converged in 15 iterations to a total energy of -107.1308 eV

 Pseudo atomic calculation performed for Ti 3s2 3p6 3d2 4s2

 Converged in 34 iterations to a total energy of -1587.0236 eV

 Pseudo atomic calculation performed for V 3s2 3p6 3d3 4s2

 Converged in 35 iterations to a total energy of -2065.7874 eV
 Calculation parallelised over 240 processes.
 Data is distributed by G-vector(16-way) and k-point(15-way)

 ************************************ Title ************************************
 

 ***************************** General Parameters ******************************
  
 output verbosity                               : normal  (1)
 write checkpoint data to                       : sqs_hex_sc3x3x3_Ti70Al8V3_frame0_12.check
 type of calculation                            : single point energy
 stress calculation                             : on
 density difference calculation                 : off
 electron localisation func (ELF) calculation   : off
 Hirshfeld analysis                             : off
 polarisation (Berry phase) analysis            : off
 molecular orbital projected DOS                : off
 deltaSCF calculation                           : off
 unlimited duration calculation
 timing information                             : on
 memory usage estimate                          : on
 write extra output files                       : on
 write final potential to formatted file        : off
 write final density to formatted file          : off
 write BibTeX reference list                    : on
 write OTFG pseudopotential files               : on
 write electrostatic potential file             : on
 write bands file                               : on
 checkpoint writing                             : off
  
 output         length unit                     : A
 output           mass unit                     : amu
 output           time unit                     : ps
 output         charge unit                     : e
 output           spin unit                     : hbar/2
 output         energy unit                     : eV
 output          force unit                     : eV/A
 output       velocity unit                     : A/ps
 output       pressure unit                     : GPa
 output     inv_length unit                     : 1/A
 output      frequency unit                     : cm-1
 output force constant unit                     : eV/A**2
 output         volume unit                     : A**3
 output   IR intensity unit                     : (D/A)**2/amu
 output         dipole unit                     : D
 output         efield unit                     : eV/A/e
 output        entropy unit                     : J/mol/K
 output    efield chi2 unit                     : pm/V
  
 wavefunctions paging                           : none
 random number generator seed                   :  191157747
 data distribution                              : k-point only
 optimization strategy                          : maximize speed(+++)

 *********************** Exchange-Correlation Parameters ***********************
  
 using functional                               : Perdew Burke Ernzerhof
 relativistic treatment                         : Koelling-Harmon
 DFT+D: Semi-empirical dispersion correction    : off

 ************************* Pseudopotential Parameters **************************
  
 pseudopotential representation                 : reciprocal space
 <beta|phi> representation                      : reciprocal space
 spin-orbit coupling                            : off

 **************************** Basis Set Parameters *****************************
  
 plane wave basis set cut-off                   :   800.0000   eV
 size of standard grid                          :     2.0000
 size of   fine   gmax                          :    28.9810   1/A
 largest prime factor in FFT                    :          5
 finite basis set correction                    : automatic
 number of sample energies                      :          3
           sample  spacing                      :     5.0000   eV

 **************************** Electronic Parameters ****************************
  
 number of  electrons                           :  903.0    
 net charge of system                           :  0.000    
 treating system as non-spin-polarized
 number of bands                                :        487

 ********************* Electronic Minimization Parameters **********************
  
 Method: Treating system as metallic with density mixing treatment of electrons,
         and number of  SD  steps               :          1
         and number of  CG  steps               :          4
  
 total energy / atom convergence tol.           : 0.1000E-05   eV
 eigen-energy convergence tolerance             : 0.1663E-06   eV
 max force / atom convergence tol.              : ignored
 convergence tolerance window                   :          3   cycles
 max. number of SCF cycles                      :         30
 number of fixed-spin iterations                :         10
 smearing scheme                                : Gaussian
 smearing width                                 : 0.5000E-01   eV
 Fermi energy convergence tolerance             : 0.2721E-13   eV
 periodic dipole correction                     : NONE

 ************************** Density Mixing Parameters **************************
  
 density-mixing scheme                          : Pulay
 max. length of mixing history                  :         20
 charge density mixing amplitude                : 0.8000    
 cut-off energy for mixing                      :  800.0       eV
 charge density mixing g-vector                 :  1.500       1/A

 *********************** Population Analysis Parameters ************************
  
 Population analysis with cutoff                :  3.000       A
 Population analysis output                     : summary and pdos components

 ******************************* Developer Code ********************************
  
 PARALLEL: kpoint=15 : ENDPARALLEL
 no_improve_wvfn

 *******************************************************************************
  

                           -------------------------------
                                      Unit Cell
                           -------------------------------
        Real Lattice(A)                      Reciprocal Lattice(1/A)
     6.8351780   -11.8388760     0.0000590        0.459621191  -0.265362409   0.000002181
     6.8351780    11.8388760    -0.0000200        0.459621191   0.265362409   0.000000425
    -0.0000240     0.0000280     8.4646560       -0.000002118   0.000002477   0.742284779

                       Lattice parameters(A)       Cell Angles
                    a =     13.670356          alpha =   90.000001
                    b =     13.670356          beta  =   89.999998
                    c =      8.464656          gamma =  120.000002

                       Current cell volume =          1369.933890       A**3
                                   density =             2.714997   AMU/A**3
                                           =             4.508359     g/cm^3

                           -------------------------------
                                     Cell Contents
                           -------------------------------
                         Total number of ions in cell =   81
                      Total number of species in cell =    3
                        Max number of any one species =   70

            xxxxxxxxxxxxxxxxxxxxxxxxxxxxxxxxxxxxxxxxxxxxxxxxxxxxxxxxxxxx
            x  Element    Atom        Fractional coordinates of atoms  x
            x            Number           u          v          w      x
            x----------------------------------------------------------x
            x  Al           1        -0.000247  -0.001326   0.330733   x 
            x  Al           2         0.561171   0.117172   0.794242   x 
            x  Al           3         0.552346   0.444073   0.652557   x 
            x  Al           4         0.560953   0.442024   0.973541   x 
            x  Al           5         0.336101   0.664673  -0.004848   x 
            x  Al           6         0.557634   0.777502   0.155799   x 
            x  Al           7         0.450688   0.900541   0.839547   x 
            x  Al           8         0.779252   0.889231   0.832163   x 
            x  Ti           1        -0.001779  -0.002587  -0.003597   x 
            x  Ti           2         0.108549   0.219909   0.163498   x 
            x  Ti           3         0.222498   0.110493   0.162162   x 
            x  Ti           4         0.106828   0.220019   0.497345   x 
            x  Ti           5         0.221687   0.110436   0.495743   x 
            x  Ti           6        -0.001662  -0.002396   0.665211   x 
            x  Ti           7         0.108640   0.218419   0.830768   x 
            x  Ti           8         0.224869   0.111682   0.829381   x 
            x  Ti           9         0.003632   0.336991  -0.002433   x 
            x  Ti          10         0.115427   0.556488   0.162964   x 
            x  Ti          11         0.225239   0.444777   0.164822   x 
            x  Ti          12         0.002551   0.334690   0.332524   x 
            x  Ti          13         0.112660   0.557161   0.495839   x 
            x  Ti          14         0.223460   0.446833   0.499970   x 
            x  Ti          15        -0.000455   0.335350   0.666586   x 
            x  Ti          16         0.109243   0.556232   0.829239   x 
            x  Ti          17         0.221769   0.444388   0.831850   x 
            x  Ti          18         0.000365   0.665542  -0.004249   x 
            x  Ti          19         0.112536   0.889715   0.162442   x 
            x  Ti          20         0.217888   0.775277   0.164047   x 
            x  Ti          21        -0.005464   0.664090   0.328735   x 
            x  Ti          22         0.113142   0.888943   0.494455   x 
            x  Ti          23         0.221125   0.776339   0.492681   x 
            x  Ti          24        -0.004545   0.664505   0.663284   x 
            x  Ti          25         0.109696   0.888687   0.827867   x 
            x  Ti          26         0.224622   0.779543   0.828082   x 
            x  Ti          27         0.333992   0.000309  -0.006320   x 
            x  Ti          28         0.451283   0.234852   0.159903   x 
            x  Ti          29         0.556528   0.110575   0.142310   x 
            x  Ti          30         0.336418   0.005066   0.326601   x 
            x  Ti          31         0.452068   0.236456   0.487518   x 
            x  Ti          32         0.334858   0.002202   0.659143   x 
            x  Ti          33         0.451035   0.232520   0.825347   x 
            x  Ti          34         0.325672   0.330257  -0.001417   x 
            x  Ti          35         0.451406   0.548786   0.155394   x 
            x  Ti          36         0.558241   0.447419   0.310247   x 
            x  Ti          37         0.320581   0.326511   0.328374   x 
            x  Ti          38         0.449629   0.546337   0.489433   x 
            x  Ti          39         0.321492   0.327665   0.659526   x 
            x  Ti          40         0.449650   0.548696   0.821232   x 
            x  Ti          41         0.439522   0.885989   0.165315   x 
            x  Ti          42         0.335897   0.666633   0.329957   x 
            x  Ti          43         0.446670   0.896220   0.507807   x 
            x  Ti          44         0.552530   0.775180   0.482160   x 
            x  Ti          45         0.337370   0.669584   0.661591   x 
            x  Ti          46         0.554897   0.777830   0.828963   x 
            x  Ti          47         0.667139  -0.002828  -0.004772   x 
            x  Ti          48         0.780331   0.221598   0.168313   x 
            x  Ti          49         0.888455   0.112281   0.165778   x 
            x  Ti          50         0.662668  -0.004470   0.329432   x 
            x  Ti          51         0.770173   0.217601   0.500950   x 
            x  Ti          52         0.886936   0.114703   0.494753   x 
            x  Ti          53         0.667112  -0.005315   0.663059   x 
            x  Ti          54         0.782897   0.225112   0.839423   x 
            x  Ti          55         0.889225   0.112704   0.830038   x 
            x  Ti          56         0.769794   0.544721   0.135186   x 
            x  Ti          57         0.892755   0.443330   0.164231   x 
            x  Ti          58         0.671932   0.327119   0.321028   x 
            x  Ti          59         0.762578   0.547571   0.485135   x 
            x  Ti          60         0.888702   0.444169   0.500467   x 
            x  Ti          61         0.669707   0.333575   0.663686   x 
            x  Ti          62         0.877221   0.448702   0.837333   x 
            x  Ti          63         0.671184   0.674149  -0.005626   x 
            x  Ti          64         0.782764   0.892879   0.161762   x 
            x  Ti          65         0.888461   0.774609   0.169204   x 
            x  Ti          66         0.675867   0.682590   0.325152   x 
            x  Ti          67         0.781058   0.892616   0.504270   x 
            x  Ti          68         0.889891   0.775228   0.499151   x 
            x  Ti          69         0.670677   0.675987   0.657990   x 
            x  Ti          70         0.885427   0.769594   0.834433   x 
            x  V            1         0.552039   0.117615   0.474329   x 
            x  V            2         0.663753   0.316479  -0.004301   x 
            x  V            3         0.761099   0.553177   0.803565   x 
            xxxxxxxxxxxxxxxxxxxxxxxxxxxxxxxxxxxxxxxxxxxxxxxxxxxxxxxxxxxx


                         No user defined ionic velocities

                           -------------------------------
                                   Details of Species
                           -------------------------------

                               Mass of species in AMU
                                    Al   26.9815400
                                    Ti   47.8670000
                                    V   50.9415000

                          Electric Quadrupole Moment (Barn)
                                    Al    0.1466000 Isotope 27
                                    Ti    0.3020000 Isotope 47
                                    V   -0.0520000 Isotope 51

                          Files used for pseudopotentials:
                                    Al 3|2.2|2.2|1.4|4|5|5|30:31:32U2U2
                                    Ti 3|1.8|9|10|11|30U:40:31:32(qc=5.5)
                                    V 3|1.8|1.8|0.6|12|14|16|30U:40:31:32(qc=7)

                           -------------------------------
                              k-Points For BZ Sampling
                           -------------------------------
                       MP grid size for SCF calculation is  5  5  6
                            with an offset of   0.000  0.000  0.000
                       Number of kpoints used =            75

                           -------------------------------
                               Symmetry and Constraints
                           -------------------------------

                      Maximum deviation from symmetry =  0.00000         ANG

                      Number of symmetry operations   =           1
                      Number of ionic constraints     =           3
                      Point group of crystal =     1: C1, 1, 1
                      Space group of crystal =     1: P1, P 1

             Set iprint > 1 for details on symmetry rotations/translations

                         Centre of mass is constrained
             Set iprint > 1 for details of linear ionic constraints

                         Number of cell constraints= 0
                         Cell constraints are:  1 2 3 4 5 6

                         External pressure/stress (GPa)
                          0.00000   0.00000   0.00000
                                    0.00000   0.00000
                                              0.00000
 
+---------------- MEMORY AND SCRATCH DISK ESTIMATES PER PROCESS --------------+
|                                                     Memory          Disk    |
| Baseline code, static data and system overhead      591.0 MB         0.0 MB |
| BLAS internal memory storage                          0.0 MB         0.0 MB |
| Model and support data                              927.0 MB         0.0 MB |
| Electronic energy minimisation requirements         440.7 MB         0.0 MB |
| Force calculation requirements                       15.9 MB         0.0 MB |
| Stress calculation requirements                      17.2 MB         0.0 MB |
|                                               ----------------------------- |
| Approx. total storage required per process         1958.8 MB         0.0 MB |
|                                                                             |
| Requirements will fluctuate during execution and may exceed these estimates |
+-----------------------------------------------------------------------------+
Calculating finite basis set correction with  3 cut-off energies.
Calculating total energy with cut-off of  790.000 eV.
------------------------------------------------------------------------ <-- SCF
SCF loop      Energy           Fermi           Energy gain       Timer   <-- SCF
                               energy          per atom          (sec)   <-- SCF
------------------------------------------------------------------------ <-- SCF
Initial  -1.06803477E+005  0.00000000E+000                        33.96  <-- SCF
      1  -1.15665404E+005  1.18457866E+001   1.09406507E+002     224.21  <-- SCF
      2  -1.18525075E+005  9.20901564E+000   3.53045810E+001     381.27  <-- SCF
      3  -1.18686662E+005  8.99171799E+000   1.99490457E+000     543.52  <-- SCF
      4  -1.18709095E+005  8.16517236E+000   2.76942273E-001     737.03  <-- SCF
      5  -1.18694969E+005  8.38633991E+000  -1.74386577E-001     935.23  <-- SCF
      6  -1.18687849E+005  8.55030813E+000  -8.79038837E-002    1124.59  <-- SCF
      7  -1.18682995E+005  8.56843683E+000  -5.99267996E-002    1321.68  <-- SCF
      8  -1.18684261E+005  8.51549714E+000   1.56288305E-002    1513.67  <-- SCF
      9  -1.18682908E+005  8.51495298E+000  -1.66971652E-002    1692.65  <-- SCF
     10  -1.18682694E+005  8.49888031E+000  -2.65165052E-003    1879.09  <-- SCF
     11  -1.18682779E+005  8.49392774E+000   1.05950692E-003    2066.49  <-- SCF
     12  -1.18682691E+005  8.49131029E+000  -1.09505583E-003    2240.25  <-- SCF
     13  -1.18682675E+005  8.49185526E+000  -1.98705327E-004    2423.86  <-- SCF
     14  -1.18682675E+005  8.49228582E+000   9.00306887E-006    2604.68  <-- SCF
     15  -1.18682673E+005  8.49226990E+000  -2.90777292E-005    2759.72  <-- SCF
     16  -1.18682673E+005  8.49227638E+000   3.70328447E-006    2914.05  <-- SCF
     17  -1.18682673E+005  8.49238310E+000  -3.47509127E-006    3050.76  <-- SCF
     18  -1.18682673E+005  8.49238603E+000   3.15010106E-009    3158.03  <-- SCF
     19  -1.18682673E+005  8.49237845E+000  -5.86829301E-008    3264.22  <-- SCF
------------------------------------------------------------------------ <-- SCF
 
Final energy, E             =  -118682.5639184     eV
Final free energy (E-TS)    =  -118682.6730075     eV
(energies not corrected for finite basis set)
 
NB est. 0K energy (E-0.5TS)      =  -118682.6184630     eV
 
Calculating total energy with cut-off of  795.000 eV.
------------------------------------------------------------------------ <-- SCF
SCF loop      Energy           Fermi           Energy gain       Timer   <-- SCF
                               energy          per atom          (sec)   <-- SCF
------------------------------------------------------------------------ <-- SCF
Initial  -1.18682564E+005  0.00000000E+000                      3294.73  <-- SCF
      1  -1.18682676E+005  8.49246652E+000   1.37838708E-003    3435.83  <-- SCF
      2  -1.18682676E+005  8.49246492E+000   3.57885731E-006    3583.41  <-- SCF
      3  -1.18682713E+005  8.49105623E+000   4.64855040E-004    3764.63  <-- SCF
      4  -1.18682675E+005  8.49291166E+000  -4.74526314E-004    3940.65  <-- SCF
      5  -1.18682674E+005  8.49239789E+000  -9.32667041E-006    4105.46  <-- SCF
      6  -1.18682674E+005  8.49240706E+000   2.60694694E-006    4246.64  <-- SCF
      7  -1.18682674E+005  8.49235295E+000  -4.08099411E-007    4356.91  <-- SCF
      8  -1.18682674E+005  8.49235306E+000  -1.58145767E-007    4462.21  <-- SCF
------------------------------------------------------------------------ <-- SCF
 
Final energy, E             =  -118682.5653610     eV
Final free energy (E-TS)    =  -118682.6744369     eV
(energies not corrected for finite basis set)
 
NB est. 0K energy (E-0.5TS)      =  -118682.6198989     eV
 
Calculating total energy with cut-off of  800.000 eV.
------------------------------------------------------------------------ <-- SCF
SCF loop      Energy           Fermi           Energy gain       Timer   <-- SCF
                               energy          per atom          (sec)   <-- SCF
------------------------------------------------------------------------ <-- SCF
Initial  -1.18682565E+005  0.00000000E+000                      4492.92  <-- SCF
      1  -1.18682684E+005  8.49229556E+000   1.46703026E-003    4661.96  <-- SCF
      2  -1.18682684E+005  8.49229244E+000   3.17677059E-006    4806.83  <-- SCF
      3  -1.18682882E+005  8.49086627E+000   2.44429234E-003    4991.71  <-- SCF
      4  -1.18682675E+005  8.49425089E+000  -2.56375932E-003    5171.38  <-- SCF
      5  -1.18682675E+005  8.49239547E+000   1.12150173E-005    5338.06  <-- SCF
      6  -1.18682676E+005  8.49247789E+000   1.03461861E-005    5504.03  <-- SCF
      7  -1.18682676E+005  8.49227793E+000  -4.08649655E-006    5650.94  <-- SCF
      8  -1.18682676E+005  8.49230009E+000  -1.88507944E-006    5767.94  <-- SCF
      9  -1.18682676E+005  8.49233736E+000  -1.27049289E-007    5875.27  <-- SCF
     10  -1.18682676E+005  8.49236305E+000  -1.72395467E-007    5981.17  <-- SCF
------------------------------------------------------------------------ <-- SCF
 
Final energy, E             =  -118682.5667075     eV
Final free energy (E-TS)    =  -118682.6757895     eV
(energies not corrected for finite basis set)
 
NB est. 0K energy (E-0.5TS)      =  -118682.6212485     eV
 
 For future reference: finite basis dEtot/dlog(Ecut) =      -0.222180eV
 Total energy corrected for finite basis set = -118682.675789 eV

 ************************** Forces **************************
 *                                                          *
 *               Cartesian components (eV/A)                *
 * -------------------------------------------------------- *
 *                         x            y            z      *
 *                                                          *
 * Al              1      0.02402      0.03026      0.01222 *
 * Al              2     -0.20496     -0.06022      0.07453 *
 * Al              3      0.09515     -0.00853     -0.01103 *
 * Al              4      0.02715      0.05171     -0.00487 *
 * Al              5     -0.04455      0.01549     -0.04507 *
 * Al              6     -0.06335      0.05675     -0.02472 *
 * Al              7     -0.13296     -0.14524      0.14035 *
 * Al              8      0.00496      0.04231      0.04255 *
 * Ti              1      0.04052     -0.07131      0.04921 *
 * Ti              2     -0.11813      0.03975      0.02697 *
 * Ti              3      0.05884     -0.04984     -0.01040 *
 * Ti              4     -0.08243      0.02539     -0.03354 *
 * Ti              5     -0.00896      0.01854     -0.04605 *
 * Ti              6      0.05187     -0.01489     -0.06008 *
 * Ti              7     -0.03944      0.08375      0.00205 *
 * Ti              8      0.07329     -0.02106      0.00000 *
 * Ti              9      0.03094     -0.04155     -0.04083 *
 * Ti             10      0.00216      0.04097      0.01384 *
 * Ti             11      0.07602     -0.05616     -0.04068 *
 * Ti             12     -0.05737      0.02286     -0.00615 *
 * Ti             13     -0.01740      0.01900      0.00600 *
 * Ti             14      0.05945     -0.02538     -0.06635 *
 * Ti             15     -0.00574     -0.02191      0.03618 *
 * Ti             16      0.06766      0.01506      0.01238 *
 * Ti             17      0.03673      0.02961     -0.06656 *
 * Ti             18     -0.09652      0.01679     -0.10820 *
 * Ti             19     -0.08346      0.03558      0.03846 *
 * Ti             20      0.11942     -0.02389      0.00858 *
 * Ti             21      0.04261     -0.03045     -0.01110 *
 * Ti             22     -0.01698      0.02943     -0.01686 *
 * Ti             23      0.02983      0.01219     -0.02316 *
 * Ti             24      0.00423     -0.00937      0.09209 *
 * Ti             25     -0.00379     -0.09934     -0.01533 *
 * Ti             26     -0.01523     -0.06521      0.03474 *
 * Ti             27     -0.07408      0.06271      0.05686 *
 * Ti             28      0.04581     -0.07037      0.01234 *
 * Ti             29      0.02138      0.05721      0.08602 *
 * Ti             30     -0.01683      0.06266     -0.04461 *
 * Ti             31     -0.09817     -0.07579     -0.12392 *
 * Ti             32      0.02290     -0.03102      0.04584 *
 * Ti             33     -0.05691     -0.18233     -0.00664 *
 * Ti             34     -0.01920      0.04899     -0.09418 *
 * Ti             35      0.00938      0.08892      0.13220 *
 * Ti             36     -0.12343      0.01706      0.21265 *
 * Ti             37      0.03388     -0.00685     -0.07265 *
 * Ti             38      0.06455      0.10671     -0.03115 *
 * Ti             39      0.05519     -0.03922      0.11191 *
 * Ti             40     -0.04210      0.08430     -0.01950 *
 * Ti             41      0.02042     -0.04112      0.02697 *
 * Ti             42      0.01075      0.04488     -0.09655 *
 * Ti             43     -0.03159     -0.08972      0.01063 *
 * Ti             44      0.08361      0.04571     -0.03167 *
 * Ti             45      0.04249      0.05584      0.02170 *
 * Ti             46     -0.01663     -0.04153     -0.04655 *
 * Ti             47      0.00417      0.05683      0.02601 *
 * Ti             48      0.06378     -0.00448     -0.04321 *
 * Ti             49     -0.04092     -0.01272     -0.01069 *
 * Ti             50      0.06372      0.03290     -0.06387 *
 * Ti             51      0.04270     -0.14471     -0.05455 *
 * Ti             52     -0.02008     -0.04211     -0.03901 *
 * Ti             53     -0.04335     -0.01434      0.01367 *
 * Ti             54     -0.03783     -0.02265      0.06404 *
 * Ti             55      0.05372      0.11957      0.02931 *
 * Ti             56      0.14574      0.01486      0.27721 *
 * Ti             57     -0.05359      0.04479     -0.10153 *
 * Ti             58      0.02461      0.15812      0.06903 *
 * Ti             59      0.11189     -0.10618     -0.08477 *
 * Ti             60     -0.03472      0.01810     -0.05247 *
 * Ti             61     -0.13087      0.05056     -0.02044 *
 * Ti             62     -0.03651      0.00514     -0.00662 *
 * Ti             63     -0.08739     -0.01404     -0.02929 *
 * Ti             64      0.00538      0.00457      0.02677 *
 * Ti             65     -0.01215      0.03142     -0.07088 *
 * Ti             66     -0.10699     -0.03256     -0.06669 *
 * Ti             67      0.04879      0.00114     -0.02331 *
 * Ti             68     -0.03995      0.02110     -0.13544 *
 * Ti             69     -0.08396     -0.05116      0.02442 *
 * Ti             70      0.02154     -0.02128     -0.11474 *
 * V               1     -0.06153      0.02748      0.01907 *
 * V               2      0.12359      0.13918      0.07822 *
 * V               3      0.29518     -0.19767      0.18090 *
 *                                                          *
 ************************************************************

 ***************** Stress Tensor *****************
 *                                               *
 *          Cartesian components (GPa)           *
 * --------------------------------------------- *
 *             x             y             z     *
 *                                               *
 *  x     -0.032713      0.034727     -0.221960  *
 *  y      0.034727      0.043211      0.267325  *
 *  z     -0.221960      0.267325      0.005644  *
 *                                               *
 *  Pressure:   -0.0054                          *
 *                                               *
 *************************************************

 Pseudo atomic calculation performed for Al 3s2 3p1

 Converged in 15 iterations to a total energy of -107.1308 eV

 Pseudo atomic calculation performed for Ti 3s2 3p6 3d2 4s2

 Converged in 34 iterations to a total energy of -1587.0236 eV

 Pseudo atomic calculation performed for V 3s2 3p6 3d3 4s2

 Converged in 35 iterations to a total energy of -2065.7874 eV
Charge spilling parameter for spin component 1 = 0.08%

            Orbital Populations       
     Ion    Atom   Orbital             Charge
  -------------------------------------------
     Al     1      S                    0.913
     Al     1      Px                   0.680
     Al     1      Py                   0.664
     Al     1      Pz                   0.674
     Al     2      S                    0.957
     Al     2      Px                   0.698
     Al     2      Py                   0.723
     Al     2      Pz                   0.673
     Al     3      S                    0.961
     Al     3      Px                   0.739
     Al     3      Py                   0.747
     Al     3      Pz                   0.634
     Al     4      S                    0.964
     Al     4      Px                   0.738
     Al     4      Py                   0.722
     Al     4      Pz                   0.638
     Al     5      S                    0.938
     Al     5      Px                   0.635
     Al     5      Py                   0.661
     Al     5      Pz                   0.695
     Al     6      S                    0.970
     Al     6      Px                   0.695
     Al     6      Py                   0.717
     Al     6      Pz                   0.674
     Al     7      S                    0.973
     Al     7      Px                   0.670
     Al     7      Py                   0.717
     Al     7      Pz                   0.691
     Al     8      S                    0.950
     Al     8      Px                   0.724
     Al     8      Py                   0.710
     Al     8      Pz                   0.666
     Ti     1      S                    2.001
     Ti     1      Px                   2.003
     Ti     1      Py                   2.003
     Ti     1      Pz                   2.005
     Ti     1      S                    0.314
     Ti     1      Dzz                  0.483
     Ti     1      Dzy                  0.618
     Ti     1      Dzx                  0.633
     Ti     1      Dxx-yy               0.452
     Ti     1      Dxy                  0.447
     Ti     1      Px                   0.337
     Ti     1      Py                   0.352
     Ti     1      Pz                   0.307
     Ti     2      S                    2.005
     Ti     2      Px                   2.008
     Ti     2      Py                   2.007
     Ti     2      Pz                   2.007
     Ti     2      S                    0.270
     Ti     2      Dzz                  0.594
     Ti     2      Dzy                  0.510
     Ti     2      Dzx                  0.504
     Ti     2      Dxx-yy               0.598
     Ti     2      Dxy                  0.595
     Ti     2      Px                   0.293
     Ti     2      Py                   0.304
     Ti     2      Pz                   0.335
     Ti     3      S                    2.004
     Ti     3      Px                   2.007
     Ti     3      Py                   2.007
     Ti     3      Pz                   2.006
     Ti     3      S                    0.276
     Ti     3      Dzz                  0.599
     Ti     3      Dzy                  0.500
     Ti     3      Dzx                  0.492
     Ti     3      Dxx-yy               0.603
     Ti     3      Dxy                  0.598
     Ti     3      Px                   0.301
     Ti     3      Py                   0.315
     Ti     3      Pz                   0.327
     Ti     4      S                    2.005
     Ti     4      Px                   2.007
     Ti     4      Py                   2.007
     Ti     4      Pz                   2.006
     Ti     4      S                    0.263
     Ti     4      Dzz                  0.599
     Ti     4      Dzy                  0.506
     Ti     4      Dzx                  0.497
     Ti     4      Dxx-yy               0.597
     Ti     4      Dxy                  0.601
     Ti     4      Px                   0.292
     Ti     4      Py                   0.305
     Ti     4      Pz                   0.327
     Ti     5      S                    2.004
     Ti     5      Px                   2.007
     Ti     5      Py                   2.007
     Ti     5      Pz                   2.006
     Ti     5      S                    0.277
     Ti     5      Dzz                  0.599
     Ti     5      Dzy                  0.496
     Ti     5      Dzx                  0.491
     Ti     5      Dxx-yy               0.604
     Ti     5      Dxy                  0.600
     Ti     5      Px                   0.303
     Ti     5      Py                   0.316
     Ti     5      Pz                   0.326
     Ti     6      S                    2.001
     Ti     6      Px                   2.003
     Ti     6      Py                   2.003
     Ti     6      Pz                   2.005
     Ti     6      S                    0.313
     Ti     6      Dzz                  0.479
     Ti     6      Dzy                  0.623
     Ti     6      Dzx                  0.645
     Ti     6      Dxx-yy               0.449
     Ti     6      Dxy                  0.438
     Ti     6      Px                   0.332
     Ti     6      Py                   0.348
     Ti     6      Pz                   0.308
     Ti     7      S                    2.005
     Ti     7      Px                   2.008
     Ti     7      Py                   2.007
     Ti     7      Pz                   2.006
     Ti     7      S                    0.259
     Ti     7      Dzz                  0.580
     Ti     7      Dzy                  0.501
     Ti     7      Dzx                  0.505
     Ti     7      Dxx-yy               0.599
     Ti     7      Dxy                  0.607
     Ti     7      Px                   0.314
     Ti     7      Py                   0.318
     Ti     7      Pz                   0.343
     Ti     8      S                    2.004
     Ti     8      Px                   2.006
     Ti     8      Py                   2.007
     Ti     8      Pz                   2.006
     Ti     8      S                    0.265
     Ti     8      Dzz                  0.591
     Ti     8      Dzy                  0.502
     Ti     8      Dzx                  0.503
     Ti     8      Dxx-yy               0.592
     Ti     8      Dxy                  0.590
     Ti     8      Px                   0.322
     Ti     8      Py                   0.325
     Ti     8      Pz                   0.337
     Ti     9      S                    2.000
     Ti     9      Px                   2.003
     Ti     9      Py                   2.003
     Ti     9      Pz                   2.004
     Ti     9      S                    0.298
     Ti     9      Dzz                  0.495
     Ti     9      Dzy                  0.585
     Ti     9      Dzx                  0.607
     Ti     9      Dxx-yy               0.472
     Ti     9      Dxy                  0.457
     Ti     9      Px                   0.356
     Ti     9      Py                   0.348
     Ti     9      Pz                   0.338
     Ti    10      S                    2.004
     Ti    10      Px                   2.007
     Ti    10      Py                   2.007
     Ti    10      Pz                   2.006
     Ti    10      S                    0.262
     Ti    10      Dzz                  0.580
     Ti    10      Dzy                  0.516
     Ti    10      Dzx                  0.512
     Ti    10      Dxx-yy               0.609
     Ti    10      Dxy                  0.588
     Ti    10      Px                   0.280
     Ti    10      Py                   0.301
     Ti    10      Pz                   0.335
     Ti    11      S                    2.005
     Ti    11      Px                   2.007
     Ti    11      Py                   2.008
     Ti    11      Pz                   2.006
     Ti    11      S                    0.276
     Ti    11      Dzz                  0.602
     Ti    11      Dzy                  0.497
     Ti    11      Dzx                  0.484
     Ti    11      Dxx-yy               0.593
     Ti    11      Dxy                  0.613
     Ti    11      Px                   0.322
     Ti    11      Py                   0.304
     Ti    11      Pz                   0.323
     Ti    12      S                    2.000
     Ti    12      Px                   2.003
     Ti    12      Py                   2.003
     Ti    12      Pz                   2.004
     Ti    12      S                    0.295
     Ti    12      Dzz                  0.503
     Ti    12      Dzy                  0.608
     Ti    12      Dzx                  0.591
     Ti    12      Dxx-yy               0.446
     Ti    12      Dxy                  0.467
     Ti    12      Px                   0.347
     Ti    12      Py                   0.348
     Ti    12      Pz                   0.341
     Ti    13      S                    2.004
     Ti    13      Px                   2.007
     Ti    13      Py                   2.007
     Ti    13      Pz                   2.006
     Ti    13      S                    0.254
     Ti    13      Dzz                  0.573
     Ti    13      Dzy                  0.505
     Ti    13      Dzx                  0.508
     Ti    13      Dxx-yy               0.604
     Ti    13      Dxy                  0.604
     Ti    13      Px                   0.322
     Ti    13      Py                   0.314
     Ti    13      Pz                   0.342
     Ti    14      S                    2.004
     Ti    14      Px                   2.007
     Ti    14      Py                   2.007
     Ti    14      Pz                   2.006
     Ti    14      S                    0.268
     Ti    14      Dzz                  0.594
     Ti    14      Dzy                  0.507
     Ti    14      Dzx                  0.483
     Ti    14      Dxx-yy               0.591
     Ti    14      Dxy                  0.608
     Ti    14      Px                   0.331
     Ti    14      Py                   0.314
     Ti    14      Pz                   0.334
     Ti    15      S                    2.000
     Ti    15      Px                   2.003
     Ti    15      Py                   2.003
     Ti    15      Pz                   2.004
     Ti    15      S                    0.304
     Ti    15      Dzz                  0.493
     Ti    15      Dzy                  0.605
     Ti    15      Dzx                  0.607
     Ti    15      Dxx-yy               0.465
     Ti    15      Dxy                  0.443
     Ti    15      Px                   0.352
     Ti    15      Py                   0.347
     Ti    15      Pz                   0.340
     Ti    16      S                    2.004
     Ti    16      Px                   2.006
     Ti    16      Py                   2.006
     Ti    16      Pz                   2.005
     Ti    16      S                    0.268
     Ti    16      Dzz                  0.610
     Ti    16      Dzy                  0.498
     Ti    16      Dzx                  0.487
     Ti    16      Dxx-yy               0.588
     Ti    16      Dxy                  0.596
     Ti    16      Px                   0.312
     Ti    16      Py                   0.313
     Ti    16      Pz                   0.322
     Ti    17      S                    2.004
     Ti    17      Px                   2.006
     Ti    17      Py                   2.007
     Ti    17      Pz                   2.006
     Ti    17      S                    0.279
     Ti    17      Dzz                  0.611
     Ti    17      Dzy                  0.508
     Ti    17      Dzx                  0.486
     Ti    17      Dxx-yy               0.589
     Ti    17      Dxy                  0.589
     Ti    17      Px                   0.310
     Ti    17      Py                   0.314
     Ti    17      Pz                   0.327
     Ti    18      S                    2.000
     Ti    18      Px                   2.003
     Ti    18      Py                   2.003
     Ti    18      Pz                   2.004
     Ti    18      S                    0.302
     Ti    18      Dzz                  0.491
     Ti    18      Dzy                  0.607
     Ti    18      Dzx                  0.591
     Ti    18      Dxx-yy               0.461
     Ti    18      Dxy                  0.471
     Ti    18      Px                   0.356
     Ti    18      Py                   0.346
     Ti    18      Pz                   0.343
     Ti    19      S                    2.004
     Ti    19      Px                   2.007
     Ti    19      Py                   2.007
     Ti    19      Pz                   2.006
     Ti    19      S                    0.266
     Ti    19      Dzz                  0.581
     Ti    19      Dzy                  0.503
     Ti    19      Dzx                  0.509
     Ti    19      Dxx-yy               0.604
     Ti    19      Dxy                  0.604
     Ti    19      Px                   0.305
     Ti    19      Py                   0.292
     Ti    19      Pz                   0.338
     Ti    20      S                    2.004
     Ti    20      Px                   2.007
     Ti    20      Py                   2.006
     Ti    20      Pz                   2.006
     Ti    20      S                    0.267
     Ti    20      Dzz                  0.584
     Ti    20      Dzy                  0.502
     Ti    20      Dzx                  0.509
     Ti    20      Dxx-yy               0.598
     Ti    20      Dxy                  0.605
     Ti    20      Px                   0.300
     Ti    20      Py                   0.292
     Ti    20      Pz                   0.337
     Ti    21      S                    2.000
     Ti    21      Px                   2.002
     Ti    21      Py                   2.003
     Ti    21      Pz                   2.004
     Ti    21      S                    0.305
     Ti    21      Dzz                  0.509
     Ti    21      Dzy                  0.602
     Ti    21      Dzx                  0.591
     Ti    21      Dxx-yy               0.446
     Ti    21      Dxy                  0.463
     Ti    21      Px                   0.354
     Ti    21      Py                   0.347
     Ti    21      Pz                   0.334
     Ti    22      S                    2.004
     Ti    22      Px                   2.007
     Ti    22      Py                   2.006
     Ti    22      Pz                   2.006
     Ti    22      S                    0.263
     Ti    22      Dzz                  0.591
     Ti    22      Dzy                  0.501
     Ti    22      Dzx                  0.510
     Ti    22      Dxx-yy               0.595
     Ti    22      Dxy                  0.603
     Ti    22      Px                   0.309
     Ti    22      Py                   0.292
     Ti    22      Pz                   0.335
     Ti    23      S                    2.004
     Ti    23      Px                   2.006
     Ti    23      Py                   2.006
     Ti    23      Pz                   2.006
     Ti    23      S                    0.259
     Ti    23      Dzz                  0.569
     Ti    23      Dzy                  0.510
     Ti    23      Dzx                  0.503
     Ti    23      Dxx-yy               0.602
     Ti    23      Dxy                  0.597
     Ti    23      Px                   0.304
     Ti    23      Py                   0.317
     Ti    23      Pz                   0.347
     Ti    24      S                    2.000
     Ti    24      Px                   2.002
     Ti    24      Py                   2.003
     Ti    24      Pz                   2.004
     Ti    24      S                    0.305
     Ti    24      Dzz                  0.488
     Ti    24      Dzy                  0.620
     Ti    24      Dzx                  0.602
     Ti    24      Dxx-yy               0.440
     Ti    24      Dxy                  0.467
     Ti    24      Px                   0.350
     Ti    24      Py                   0.349
     Ti    24      Pz                   0.345
     Ti    25      S                    2.004
     Ti    25      Px                   2.006
     Ti    25      Py                   2.006
     Ti    25      Pz                   2.006
     Ti    25      S                    0.260
     Ti    25      Dzz                  0.586
     Ti    25      Dzy                  0.497
     Ti    25      Dzx                  0.497
     Ti    25      Dxx-yy               0.606
     Ti    25      Dxy                  0.591
     Ti    25      Px                   0.327
     Ti    25      Py                   0.328
     Ti    25      Pz                   0.337
     Ti    26      S                    2.003
     Ti    26      Px                   2.006
     Ti    26      Py                   2.005
     Ti    26      Pz                   2.005
     Ti    26      S                    0.261
     Ti    26      Dzz                  0.612
     Ti    26      Dzy                  0.484
     Ti    26      Dzx                  0.508
     Ti    26      Dxx-yy               0.575
     Ti    26      Dxy                  0.602
     Ti    26      Px                   0.287
     Ti    26      Py                   0.287
     Ti    26      Pz                   0.341
     Ti    27      S                    2.000
     Ti    27      Px                   2.002
     Ti    27      Py                   2.003
     Ti    27      Pz                   2.004
     Ti    27      S                    0.311
     Ti    27      Dzz                  0.492
     Ti    27      Dzy                  0.609
     Ti    27      Dzx                  0.592
     Ti    27      Dxx-yy               0.445
     Ti    27      Dxy                  0.489
     Ti    27      Px                   0.339
     Ti    27      Py                   0.323
     Ti    27      Pz                   0.332
     Ti    28      S                    2.002
     Ti    28      Px                   2.005
     Ti    28      Py                   2.005
     Ti    28      Pz                   2.005
     Ti    28      S                    0.280
     Ti    28      Dzz                  0.575
     Ti    28      Dzy                  0.514
     Ti    28      Dzx                  0.542
     Ti    28      Dxx-yy               0.512
     Ti    28      Dxy                  0.561
     Ti    28      Px                   0.310
     Ti    28      Py                   0.320
     Ti    28      Pz                   0.350
     Ti    29      S                    2.003
     Ti    29      Px                   2.006
     Ti    29      Py                   2.005
     Ti    29      Pz                   2.004
     Ti    29      S                    0.288
     Ti    29      Dzz                  0.564
     Ti    29      Dzy                  0.471
     Ti    29      Dzx                  0.491
     Ti    29      Dxx-yy               0.618
     Ti    29      Dxy                  0.604
     Ti    29      Px                   0.337
     Ti    29      Py                   0.333
     Ti    29      Pz                   0.269
     Ti    30      S                    2.000
     Ti    30      Px                   2.002
     Ti    30      Py                   2.002
     Ti    30      Pz                   2.003
     Ti    30      S                    0.302
     Ti    30      Dzz                  0.498
     Ti    30      Dzy                  0.603
     Ti    30      Dzx                  0.575
     Ti    30      Dxx-yy               0.461
     Ti    30      Dxy                  0.467
     Ti    30      Px                   0.368
     Ti    30      Py                   0.359
     Ti    30      Pz                   0.333
     Ti    31      S                    2.002
     Ti    31      Px                   2.005
     Ti    31      Py                   2.005
     Ti    31      Pz                   2.005
     Ti    31      S                    0.272
     Ti    31      Dzz                  0.554
     Ti    31      Dzy                  0.493
     Ti    31      Dzx                  0.560
     Ti    31      Dxx-yy               0.547
     Ti    31      Dxy                  0.549
     Ti    31      Px                   0.307
     Ti    31      Py                   0.303
     Ti    31      Pz                   0.350
     Ti    32      S                    2.000
     Ti    32      Px                   2.003
     Ti    32      Py                   2.003
     Ti    32      Pz                   2.004
     Ti    32      S                    0.311
     Ti    32      Dzz                  0.513
     Ti    32      Dzy                  0.603
     Ti    32      Dzx                  0.599
     Ti    32      Dxx-yy               0.438
     Ti    32      Dxy                  0.479
     Ti    32      Px                   0.334
     Ti    32      Py                   0.315
     Ti    32      Pz                   0.335
     Ti    33      S                    2.003
     Ti    33      Px                   2.005
     Ti    33      Py                   2.006
     Ti    33      Pz                   2.005
     Ti    33      S                    0.275
     Ti    33      Dzz                  0.592
     Ti    33      Dzy                  0.488
     Ti    33      Dzx                  0.528
     Ti    33      Dxx-yy               0.542
     Ti    33      Dxy                  0.585
     Ti    33      Px                   0.303
     Ti    33      Py                   0.276
     Ti    33      Pz                   0.355
     Ti    34      S                    2.001
     Ti    34      Px                   2.004
     Ti    34      Py                   2.004
     Ti    34      Pz                   2.004
     Ti    34      S                    0.298
     Ti    34      Dzz                  0.523
     Ti    34      Dzy                  0.594
     Ti    34      Dzx                  0.568
     Ti    34      Dxx-yy               0.486
     Ti    34      Dxy                  0.483
     Ti    34      Px                   0.307
     Ti    34      Py                   0.345
     Ti    34      Pz                   0.337
     Ti    35      S                    2.002
     Ti    35      Px                   2.006
     Ti    35      Py                   2.005
     Ti    35      Pz                   2.005
     Ti    35      S                    0.285
     Ti    35      Dzz                  0.601
     Ti    35      Dzy                  0.544
     Ti    35      Dzx                  0.512
     Ti    35      Dxx-yy               0.552
     Ti    35      Dxy                  0.530
     Ti    35      Px                   0.303
     Ti    35      Py                   0.262
     Ti    35      Pz                   0.344
     Ti    36      S                    2.003
     Ti    36      Px                   2.006
     Ti    36      Py                   2.007
     Ti    36      Pz                   2.006
     Ti    36      S                    0.330
     Ti    36      Dzz                  0.575
     Ti    36      Dzy                  0.486
     Ti    36      Dzx                  0.485
     Ti    36      Dxx-yy               0.605
     Ti    36      Dxy                  0.617
     Ti    36      Px                   0.377
     Ti    36      Py                   0.376
     Ti    36      Pz                   0.240
     Ti    37      S                    2.002
     Ti    37      Px                   2.004
     Ti    37      Py                   2.004
     Ti    37      Pz                   2.005
     Ti    37      S                    0.294
     Ti    37      Dzz                  0.509
     Ti    37      Dzy                  0.588
     Ti    37      Dzx                  0.564
     Ti    37      Dxx-yy               0.521
     Ti    37      Dxy                  0.454
     Ti    37      Px                   0.342
     Ti    37      Py                   0.338
     Ti    37      Pz                   0.327
     Ti    38      S                    2.002
     Ti    38      Px                   2.005
     Ti    38      Py                   2.005
     Ti    38      Pz                   2.005
     Ti    38      S                    0.271
     Ti    38      Dzz                  0.561
     Ti    38      Dzy                  0.557
     Ti    38      Dzx                  0.503
     Ti    38      Dxx-yy               0.591
     Ti    38      Dxy                  0.501
     Ti    38      Px                   0.322
     Ti    38      Py                   0.307
     Ti    38      Pz                   0.341
     Ti    39      S                    2.002
     Ti    39      Px                   2.005
     Ti    39      Py                   2.004
     Ti    39      Pz                   2.005
     Ti    39      S                    0.303
     Ti    39      Dzz                  0.540
     Ti    39      Dzy                  0.605
     Ti    39      Dzx                  0.559
     Ti    39      Dxx-yy               0.494
     Ti    39      Dxy                  0.468
     Ti    39      Px                   0.303
     Ti    39      Py                   0.345
     Ti    39      Pz                   0.334
     Ti    40      S                    2.002
     Ti    40      Px                   2.005
     Ti    40      Py                   2.005
     Ti    40      Pz                   2.005
     Ti    40      S                    0.287
     Ti    40      Dzz                  0.580
     Ti    40      Dzy                  0.519
     Ti    40      Dzx                  0.516
     Ti    40      Dxx-yy               0.573
     Ti    40      Dxy                  0.529
     Ti    40      Px                   0.331
     Ti    40      Py                   0.263
     Ti    40      Pz                   0.335
     Ti    41      S                    2.003
     Ti    41      Px                   2.005
     Ti    41      Py                   2.007
     Ti    41      Pz                   2.005
     Ti    41      S                    0.282
     Ti    41      Dzz                  0.586
     Ti    41      Dzy                  0.506
     Ti    41      Dzx                  0.517
     Ti    41      Dxx-yy               0.603
     Ti    41      Dxy                  0.578
     Ti    41      Px                   0.311
     Ti    41      Py                   0.297
     Ti    41      Pz                   0.300
     Ti    42      S                    2.000
     Ti    42      Px                   2.003
     Ti    42      Py                   2.002
     Ti    42      Pz                   2.004
     Ti    42      S                    0.322
     Ti    42      Dzz                  0.483
     Ti    42      Dzy                  0.608
     Ti    42      Dzx                  0.633
     Ti    42      Dxx-yy               0.463
     Ti    42      Dxy                  0.448
     Ti    42      Px                   0.328
     Ti    42      Py                   0.372
     Ti    42      Pz                   0.312
     Ti    43      S                    2.003
     Ti    43      Px                   2.005
     Ti    43      Py                   2.006
     Ti    43      Pz                   2.005
     Ti    43      S                    0.290
     Ti    43      Dzz                  0.582
     Ti    43      Dzy                  0.502
     Ti    43      Dzx                  0.481
     Ti    43      Dxx-yy               0.568
     Ti    43      Dxy                  0.613
     Ti    43      Px                   0.336
     Ti    43      Py                   0.329
     Ti    43      Pz                   0.279
     Ti    44      S                    2.003
     Ti    44      Px                   2.006
     Ti    44      Py                   2.006
     Ti    44      Pz                   2.006
     Ti    44      S                    0.294
     Ti    44      Dzz                  0.580
     Ti    44      Dzy                  0.500
     Ti    44      Dzx                  0.486
     Ti    44      Dxx-yy               0.585
     Ti    44      Dxy                  0.596
     Ti    44      Px                   0.356
     Ti    44      Py                   0.333
     Ti    44      Pz                   0.291
     Ti    45      S                    2.000
     Ti    45      Px                   2.002
     Ti    45      Py                   2.002
     Ti    45      Pz                   2.004
     Ti    45      S                    0.324
     Ti    45      Dzz                  0.475
     Ti    45      Dzy                  0.624
     Ti    45      Dzx                  0.618
     Ti    45      Dxx-yy               0.464
     Ti    45      Dxy                  0.450
     Ti    45      Px                   0.328
     Ti    45      Py                   0.357
     Ti    45      Pz                   0.315
     Ti    46      S                    2.003
     Ti    46      Px                   2.006
     Ti    46      Py                   2.007
     Ti    46      Pz                   2.005
     Ti    46      S                    0.279
     Ti    46      Dzz                  0.626
     Ti    46      Dzy                  0.507
     Ti    46      Dzx                  0.477
     Ti    46      Dxx-yy               0.602
     Ti    46      Dxy                  0.588
     Ti    46      Px                   0.318
     Ti    46      Py                   0.292
     Ti    46      Pz                   0.295
     Ti    47      S                    2.001
     Ti    47      Px                   2.004
     Ti    47      Py                   2.003
     Ti    47      Pz                   2.004
     Ti    47      S                    0.305
     Ti    47      Dzz                  0.514
     Ti    47      Dzy                  0.580
     Ti    47      Dzx                  0.598
     Ti    47      Dxx-yy               0.474
     Ti    47      Dxy                  0.487
     Ti    47      Px                   0.323
     Ti    47      Py                   0.283
     Ti    47      Pz                   0.317
     Ti    48      S                    2.005
     Ti    48      Px                   2.007
     Ti    48      Py                   2.008
     Ti    48      Pz                   2.007
     Ti    48      S                    0.254
     Ti    48      Dzz                  0.575
     Ti    48      Dzy                  0.530
     Ti    48      Dzx                  0.502
     Ti    48      Dxx-yy               0.597
     Ti    48      Dxy                  0.586
     Ti    48      Px                   0.315
     Ti    48      Py                   0.304
     Ti    48      Pz                   0.352
     Ti    49      S                    2.004
     Ti    49      Px                   2.007
     Ti    49      Py                   2.007
     Ti    49      Pz                   2.006
     Ti    49      S                    0.250
     Ti    49      Dzz                  0.580
     Ti    49      Dzy                  0.503
     Ti    49      Dzx                  0.511
     Ti    49      Dxx-yy               0.596
     Ti    49      Dxy                  0.614
     Ti    49      Px                   0.309
     Ti    49      Py                   0.289
     Ti    49      Pz                   0.335
     Ti    50      S                    2.000
     Ti    50      Px                   2.003
     Ti    50      Py                   2.002
     Ti    50      Pz                   2.003
     Ti    50      S                    0.303
     Ti    50      Dzz                  0.502
     Ti    50      Dzy                  0.581
     Ti    50      Dzx                  0.607
     Ti    50      Dxx-yy               0.469
     Ti    50      Dxy                  0.452
     Ti    50      Px                   0.328
     Ti    50      Py                   0.362
     Ti    50      Pz                   0.333
     Ti    51      S                    2.004
     Ti    51      Px                   2.006
     Ti    51      Py                   2.007
     Ti    51      Pz                   2.006
     Ti    51      S                    0.270
     Ti    51      Dzz                  0.584
     Ti    51      Dzy                  0.519
     Ti    51      Dzx                  0.463
     Ti    51      Dxx-yy               0.576
     Ti    51      Dxy                  0.625
     Ti    51      Px                   0.316
     Ti    51      Py                   0.298
     Ti    51      Pz                   0.335
     Ti    52      S                    2.004
     Ti    52      Px                   2.007
     Ti    52      Py                   2.006
     Ti    52      Pz                   2.006
     Ti    52      S                    0.260
     Ti    52      Dzz                  0.582
     Ti    52      Dzy                  0.502
     Ti    52      Dzx                  0.509
     Ti    52      Dxx-yy               0.598
     Ti    52      Dxy                  0.604
     Ti    52      Px                   0.310
     Ti    52      Py                   0.291
     Ti    52      Pz                   0.342
     Ti    53      S                    2.000
     Ti    53      Px                   2.003
     Ti    53      Py                   2.003
     Ti    53      Pz                   2.004
     Ti    53      S                    0.308
     Ti    53      Dzz                  0.510
     Ti    53      Dzy                  0.592
     Ti    53      Dzx                  0.608
     Ti    53      Dxx-yy               0.465
     Ti    53      Dxy                  0.474
     Ti    53      Px                   0.345
     Ti    53      Py                   0.283
     Ti    53      Pz                   0.333
     Ti    54      S                    2.004
     Ti    54      Px                   2.007
     Ti    54      Py                   2.007
     Ti    54      Pz                   2.006
     Ti    54      S                    0.258
     Ti    54      Dzz                  0.583
     Ti    54      Dzy                  0.512
     Ti    54      Dzx                  0.477
     Ti    54      Dxx-yy               0.606
     Ti    54      Dxy                  0.604
     Ti    54      Px                   0.303
     Ti    54      Py                   0.319
     Ti    54      Pz                   0.347
     Ti    55      S                    2.004
     Ti    55      Px                   2.007
     Ti    55      Py                   2.006
     Ti    55      Pz                   2.006
     Ti    55      S                    0.239
     Ti    55      Dzz                  0.594
     Ti    55      Dzy                  0.500
     Ti    55      Dzx                  0.489
     Ti    55      Dxx-yy               0.595
     Ti    55      Dxy                  0.616
     Ti    55      Px                   0.300
     Ti    55      Py                   0.309
     Ti    55      Pz                   0.354
     Ti    56      S                    2.001
     Ti    56      Px                   2.005
     Ti    56      Py                   2.004
     Ti    56      Pz                   2.004
     Ti    56      S                    0.277
     Ti    56      Dzz                  0.558
     Ti    56      Dzy                  0.520
     Ti    56      Dzx                  0.516
     Ti    56      Dxx-yy               0.530
     Ti    56      Dxy                  0.573
     Ti    56      Px                   0.308
     Ti    56      Py                   0.304
     Ti    56      Pz                   0.345
     Ti    57      S                    2.005
     Ti    57      Px                   2.007
     Ti    57      Py                   2.007
     Ti    57      Pz                   2.006
     Ti    57      S                    0.276
     Ti    57      Dzz                  0.571
     Ti    57      Dzy                  0.518
     Ti    57      Dzx                  0.501
     Ti    57      Dxx-yy               0.593
     Ti    57      Dxy                  0.604
     Ti    57      Px                   0.320
     Ti    57      Py                   0.312
     Ti    57      Pz                   0.343
     Ti    58      S                    2.002
     Ti    58      Px                   2.004
     Ti    58      Py                   2.004
     Ti    58      Pz                   2.005
     Ti    58      S                    0.289
     Ti    58      Dzz                  0.523
     Ti    58      Dzy                  0.529
     Ti    58      Dzx                  0.586
     Ti    58      Dxx-yy               0.444
     Ti    58      Dxy                  0.547
     Ti    58      Px                   0.363
     Ti    58      Py                   0.320
     Ti    58      Pz                   0.337
     Ti    59      S                    2.002
     Ti    59      Px                   2.005
     Ti    59      Py                   2.005
     Ti    59      Pz                   2.005
     Ti    59      S                    0.270
     Ti    59      Dzz                  0.576
     Ti    59      Dzy                  0.502
     Ti    59      Dzx                  0.535
     Ti    59      Dxx-yy               0.537
     Ti    59      Dxy                  0.568
     Ti    59      Px                   0.301
     Ti    59      Py                   0.313
     Ti    59      Pz                   0.344
     Ti    60      S                    2.004
     Ti    60      Px                   2.007
     Ti    60      Py                   2.006
     Ti    60      Pz                   2.006
     Ti    60      S                    0.274
     Ti    60      Dzz                  0.596
     Ti    60      Dzy                  0.485
     Ti    60      Dzx                  0.499
     Ti    60      Dxx-yy               0.594
     Ti    60      Dxy                  0.600
     Ti    60      Px                   0.317
     Ti    60      Py                   0.322
     Ti    60      Pz                   0.332
     Ti    61      S                    2.002
     Ti    61      Px                   2.005
     Ti    61      Py                   2.005
     Ti    61      Pz                   2.004
     Ti    61      S                    0.290
     Ti    61      Dzz                  0.548
     Ti    61      Dzy                  0.509
     Ti    61      Dzx                  0.597
     Ti    61      Dxx-yy               0.472
     Ti    61      Dxy                  0.541
     Ti    61      Px                   0.336
     Ti    61      Py                   0.279
     Ti    61      Pz                   0.343
     Ti    62      S                    2.004
     Ti    62      Px                   2.007
     Ti    62      Py                   2.005
     Ti    62      Pz                   2.005
     Ti    62      S                    0.276
     Ti    62      Dzz                  0.607
     Ti    62      Dzy                  0.490
     Ti    62      Dzx                  0.495
     Ti    62      Dxx-yy               0.618
     Ti    62      Dxy                  0.538
     Ti    62      Px                   0.315
     Ti    62      Py                   0.335
     Ti    62      Pz                   0.324
     Ti    63      S                    2.001
     Ti    63      Px                   2.005
     Ti    63      Py                   2.004
     Ti    63      Pz                   2.005
     Ti    63      S                    0.300
     Ti    63      Dzz                  0.512
     Ti    63      Dzy                  0.592
     Ti    63      Dzx                  0.558
     Ti    63      Dxx-yy               0.506
     Ti    63      Dxy                  0.500
     Ti    63      Px                   0.293
     Ti    63      Py                   0.326
     Ti    63      Pz                   0.338
[...]
              Al 4 -- Ti 63                  0.32        2.75490
             Ti 58 -- V 2                    0.34        2.75695
              Al 6 -- Ti 44                  0.28        2.76320
              Al 7 -- Ti 41                  0.31        2.76340
              Al 6 -- Ti 46                  0.31        2.76684
             Ti 36 -- Ti 58                  0.20        2.77206
             Ti 28 -- Ti 31                  0.19        2.77321
              Al 8 -- Ti 67                  0.26        2.77579
              Al 4 -- V 3                    0.29        2.77626
             Ti 57 -- Ti 62                  0.09        2.77899
              Al 4 -- Ti 33                  0.27        2.78036
             Ti 20 -- Ti 23                  0.11        2.78205
              Al 3 -- V 3                    0.25        2.78314
             Ti 48 -- Ti 54                  0.11        2.78427
             Ti 49 -- Ti 52                  0.02        2.78506
             Ti 36 -- Ti 66                  0.21        2.78702
              Al 2 -- Ti 61                  0.25        2.79016
              Al 8 -- Ti 64                  0.30        2.79037
             Ti 35 -- Ti 36                  0.17        2.79198
              Al 3 -- Ti 38                  0.26        2.79207
             Ti 34 -- Ti 37                  0.33        2.79227
             Ti 65 -- Ti 68                  0.08        2.79294
              Al 4 -- Ti 34                  0.32        2.79467
             Ti 63 -- Ti 66                  0.28        2.80171
             Ti 9  -- Ti 15                  0.42        2.80206
             Ti 37 -- Ti 39                  0.31        2.80312
             Ti 1  -- Ti 6                   0.39        2.80343
             Ti 58 -- V 1                    0.16        2.80688
             Ti 42 -- Ti 45                  0.38        2.80739
              Al 7 -- Ti 43                  0.25        2.80865
             Ti 38 -- Ti 40                  0.15        2.80875
             Ti 14 -- Ti 17                  0.11        2.80941
             Ti 19 -- Ti 22                  0.07        2.81042
             Ti 47 -- Ti 53                  0.32        2.81190
             Ti 29 -- V 1                    0.16        2.81379
             Ti 56 -- V 3                    0.21        2.81439
             Ti 18 -- Ti 24                  0.40        2.81489
             Ti 30 -- Ti 32                  0.33        2.81506
             Ti 2  -- Ti 7                   0.10        2.81652
             Ti 3  -- Ti 8                   0.07        2.81702
             Ti 69 -- V 3                    0.15        2.81783
             Ti 61 -- V 2                    0.33        2.81788
             Ti 36 -- Ti 37                  0.21        2.81795
             Ti 10 -- Ti 13                  0.08        2.81800
             Ti 48 -- Ti 51                  0.07        2.81826
             Ti 66 -- Ti 69                  0.31        2.81856
             Ti 27 -- Ti 30                  0.39        2.81862
             Ti 11 -- Ti 17                  0.06        2.81885
             Ti 18 -- Ti 21                  0.35        2.81951
             Ti 28 -- Ti 36                  0.15        2.82005
             Ti 13 -- Ti 16                  0.07        2.82243
             Ti 22 -- Ti 25                  0.07        2.82258
             Ti 4  -- Ti 7                   0.10        2.82260
             Ti 3  -- Ti 5                   0.06        2.82367
              Al 5 -- Ti 45                  0.44        2.82412
             Ti 5  -- Ti 8                   0.07        2.82439
             Ti 50 -- Ti 53                  0.38        2.82484
              Al 4 -- Ti 56                  0.20        2.82590
             Ti 2  -- Ti 4                   0.06        2.82600
             Ti 10 -- Ti 16                  0.06        2.82608
              Al 3 -- Ti 31                  0.24        2.82762
             Ti 35 -- Ti 38                  0.24        2.82768
             Ti 54 -- V 2                    0.20        2.82790
             Ti 12 -- Ti 15                  0.38        2.82810
             Ti 35 -- Ti 40                  0.17        2.82866
             Ti 47 -- Ti 50                  0.36        2.82943
              Al 1 -- Ti 1                   0.35        2.83005
              Al 1 -- Ti 6                   0.35        2.83129
             Ti 27 -- Ti 32                  0.34        2.83183
             Ti 21 -- Ti 24                  0.37        2.83186
             Ti 28 -- Ti 33                  0.19        2.83206
             Ti 19 -- Ti 25                  0.07        2.83227
              Al 5 -- Ti 42                  0.36        2.83415
             Ti 65 -- Ti 70                  0.12        2.83435
             Ti 9  -- Ti 12                  0.35        2.83543
             Ti 36 -- Ti 59                  0.21        2.83626
             Ti 11 -- Ti 14                  0.10        2.83728
             Ti 52 -- Ti 55                  0.05        2.83853
             Ti 68 -- Ti 70                  0.09        2.83892
             Ti 23 -- Ti 26                  0.13        2.83943
              Al 3 -- Ti 40                  0.26        2.83953
             Ti 49 -- Ti 55                  0.06        2.84194
             Ti 30 -- V 1                    0.20        2.84327
             Ti 48 -- Ti 58                  0.10        2.84347
             Ti 20 -- Ti 26                  0.09        2.84497
             Ti 57 -- Ti 60                  0.12        2.84680
             Ti 63 -- Ti 69                  0.28        2.84752
             Ti 64 -- Ti 66                  0.16        2.84805
             Ti 65 -- Ti 66                  0.15        2.84873
              Al 4 -- Ti 36                  0.21        2.85177
             Ti 60 -- Ti 62                  0.09        2.85815
             Ti 31 -- Ti 33                  0.18        2.86001
              Al 3 -- Ti 59                  0.19        2.86418
             Ti 61 -- Ti 62                  0.03        2.86709
             Ti 61 -- V 3                    0.16        2.86783
             Ti 51 -- Ti 54                  0.13        2.86906
             Ti 42 -- Ti 44                  0.21        2.87010
             Ti 34 -- Ti 39                  0.34        2.87044
             Ti 2  -- Ti 37                  0.16        2.87211
             Ti 67 -- Ti 69                  0.17        2.87598
              Al 7 -- Ti 27                  0.24        2.87801
             Ti 32 -- Ti 43                  0.13        2.87939
             Ti 63 -- Ti 70                  0.08        2.87953
             Ti 62 -- V 2                    0.08        2.88188
              Al 4 -- Ti 40                  0.24        2.88488
              Al 7 -- Ti 47                  0.23        2.88588
             Ti 11 -- Ti 37                  0.15        2.88728
             Ti 36 -- Ti 38                  0.18        2.88815
             Ti 4  -- Ti 39                  0.12        2.88847
             Ti 44 -- Ti 66                  0.16        2.88882
             Ti 53 -- Ti 67                  0.16        2.89022
              Al 8 -- Ti 63                  0.24        2.89295
             Ti 28 -- V 2                    0.17        2.89350
             Ti 51 -- Ti 58                  0.11        2.89399
             Ti 21 -- Ti 65                  0.19        2.89822
              Al 3 -- Ti 36                  0.18        2.89838
             Ti 64 -- Ti 67                  0.10        2.89929
              Al 3 -- Ti 33                  0.22        2.90099
             Ti 41 -- Ti 43                  0.08        2.90174
             Ti 48 -- V 2                    0.14        2.90242
             Ti 58 -- Ti 61                  0.29        2.90245
             Ti 18 -- Ti 62                  0.14        2.90326
              Al 6 -- Ti 66                  0.21        2.90653
             Ti 4  -- Ti 37                  0.14        2.90683
             Ti 7  -- Ti 39                  0.15        2.90733
             Ti 14 -- Ti 39                  0.13        2.90810
             Ti 11 -- Ti 34                  0.14        2.90953
              Al 6 -- Ti 63                  0.22        2.90963
             Ti 1  -- Ti 64                  0.14        2.90990
             Ti 51 -- Ti 61                  0.12        2.91113
             Ti 6  -- Ti 67                  0.12        2.91125
             Ti 44 -- Ti 50                  0.15        2.91146
              Al 2 -- V 2                    0.20        2.91155
             Ti 66 -- Ti 67                  0.13        2.91227
             Ti 36 -- Ti 56                  0.17        2.91239
              Al 2 -- Ti 32                  0.25        2.91324
             Ti 24 -- Ti 68                  0.12        2.91344
             Ti 31 -- Ti 36                  0.15        2.91368
             Ti 34 -- Ti 35                  0.12        2.91648
              Al 4 -- Ti 28                  0.18        2.91737
             Ti 33 -- V 2                    0.15        2.91806
             Ti 27 -- Ti 29                  0.15        2.91959
             Ti 3  -- Ti 37                  0.14        2.92202
              Al 8 -- Ti 69                  0.23        2.92366
             Ti 5  -- Ti 39                  0.11        2.92411
             Ti 2  -- Ti 34                  0.11        2.92518
              Al 2 -- Ti 53                  0.24        2.92561
             Ti 68 -- Ti 69                  0.08        2.92628
             Ti 43 -- Ti 53                  0.11        2.92640
             Ti 46 -- Ti 53                  0.14        2.92676
             Ti 5  -- Ti 37                  0.12        2.92686
             Ti 29 -- Ti 47                  0.15        2.92983
             Ti 24 -- Ti 70                  0.12        2.93016
             Ti 33 -- Ti 61                  0.11        2.93042
             Ti 18 -- Ti 70                  0.11        2.93116
             Ti 57 -- Ti 58                  0.13        2.93298
             Ti 9  -- Ti 57                  0.11        2.93331
             Ti 21 -- Ti 68                  0.16        2.93410
              Al 6 -- Ti 47                  0.23        2.93441
             Ti 44 -- Ti 46                  0.11        2.93577
             Ti 9  -- Ti 54                  0.15        2.93623
             Ti 7  -- Ti 34                  0.13        2.93629
             Ti 66 -- Ti 68                  0.18        2.93735
             Ti 8  -- Ti 39                  0.13        2.93761
             Ti 60 -- Ti 61                  0.14        2.93784
             Ti 9  -- Ti 17                  0.14        2.93896
             Ti 45 -- Ti 46                  0.16        2.93926
              Al 1 -- Ti 64                  0.17        2.94047
              Al 8 -- Ti 1                   0.20        2.94166
             Ti 16 -- Ti 18                  0.14        2.94262
             Ti 17 -- Ti 34                  0.13        2.94275
             Ti 18 -- Ti 20                  0.14        2.94302
             Ti 4  -- Ti 12                  0.14        2.94457
             Ti 35 -- Ti 63                  0.14        2.94491
             Ti 12 -- Ti 52                  0.11        2.94525
             Ti 3  -- Ti 30                  0.16        2.94691
              Al 2 -- Ti 29                  0.23        2.94737
              Al 8 -- Ti 53                  0.18        2.94740
              Al 5 -- Ti 46                  0.21        2.94808
              Al 8 -- Ti 47                  0.19        2.94840
             Ti 41 -- Ti 42                  0.14        2.94841
             Ti 3  -- Ti 34                  0.11        2.94869
             Ti 6  -- Ti 25                  0.11        2.94900
             Ti 37 -- Ti 38                  0.10        2.94958
             Ti 24 -- Ti 60                  0.12        2.95060
             Ti 17 -- Ti 39                  0.10        2.95085
             Ti 56 -- V 2                    0.16        2.95089
             Ti 9  -- Ti 10                  0.12        2.95188
             Ti 63 -- Ti 64                  0.12        2.95196
              Al 5 -- Ti 17                  0.17        2.95217
             Ti 12 -- Ti 57                  0.15        2.95245
             Ti 24 -- Ti 62                  0.13        2.95259
             Ti 15 -- Ti 54                  0.13        2.95290
              Al 8 -- Ti 6                   0.20        2.95378
             Ti 46 -- Ti 47                  0.12        2.95383
              Al 5 -- Al 6                   0.20        2.95440
             Ti 69 -- Ti 70                  0.05        2.95463
             Ti 15 -- Ti 16                  0.13        2.95531
             Ti 59 -- Ti 61                  0.12        2.95635
             Ti 15 -- Ti 60                  0.13        2.95640
             Ti 46 -- Ti 69                  0.12        2.95659
             Ti 28 -- Ti 58                  0.07        2.95717
             Ti 8  -- Ti 27                  0.11        2.95782
             Ti 46 -- Ti 63                  0.14        2.95797
             Ti 56 -- Ti 63                  0.13        2.95863
             Ti 28 -- Ti 34                  0.13        2.95868
             Ti 8  -- Ti 34                  0.11        2.95987
             Ti 14 -- Ti 37                  0.13        2.96004
             Ti 9  -- Ti 16                  0.13        2.96144
             Ti 47 -- Ti 64                  0.10        2.96172
             Ti 31 -- Ti 37                  0.13        2.96209
             Ti 39 -- Ti 40                  0.13        2.96297
             Ti 21 -- Ti 57                  0.15        2.96369
             Ti 5  -- Ti 32                  0.15        2.96391
             Ti 56 -- Ti 59                  0.22        2.96474
             Ti 30 -- Ti 41                  0.11        2.96558
             Ti 44 -- Ti 45                  0.14        2.96581
             Ti 26 -- Ti 27                  0.15        2.96581
             Ti 6  -- Ti 7                   0.10        2.96613
             Ti 40 -- Ti 69                  0.12        2.96802
             Ti 10 -- Ti 42                  0.10        2.96830
             Ti 1  -- Ti 7                   0.10        2.96843
             Ti 58 -- Ti 59                  0.15        2.96865
             Ti 63 -- Ti 65                  0.07        2.96974
             Ti 52 -- Ti 53                  0.12        2.97011
              Al 6 -- Ti 50                  0.16        2.97081
             Ti 14 -- Ti 45                  0.14        2.97106
             Ti 8  -- Ti 32                  0.11        2.97111
             Ti 31 -- Ti 58                  0.07        2.97166
             Ti 1  -- Ti 25                  0.13        2.97181
             Ti 43 -- Ti 50                  0.10        2.97203
             Ti 59 -- Ti 66                  0.13        2.97215
              Al 7 -- Ti 53                  0.15        2.97216
             Ti 22 -- Ti 32                  0.12        2.97226
              Al 5 -- Ti 11                  0.18        2.97323
             Ti 38 -- Ti 39                  0.12        2.97339
             Ti 14 -- Ti 42                  0.16        2.97382
             Ti 5  -- Ti 30                  0.16        2.97386
              Al 5 -- Ti 10                  0.14        2.97387
             Ti 12 -- Ti 13                  0.11        2.97460
             Ti 12 -- Ti 14                  0.11        2.97479
             Ti 18 -- Ti 56                  0.14        2.97490
             Ti 11 -- Ti 42                  0.14        2.97532
             Ti 44 -- Ti 69                  0.09        2.97533
             Ti 12 -- Ti 48                  0.11        2.97558
              Al 1 -- Ti 5                   0.17        2.97566
              Al 1 -- Ti 4                   0.15        2.97629
             Ti 51 -- Ti 53                  0.12        2.97671
             Ti 15 -- Ti 55                  0.15        2.97696
              Al 1 -- Ti 67                  0.15        2.97712
              Al 1 -- Ti 2                   0.14        2.97734
             Ti 29 -- Ti 58                  0.05        2.97830
             Ti 47 -- Ti 55                  0.08        2.97857
             Ti 15 -- Ti 17                  0.10        2.97981
             Ti 2  -- Ti 12                  0.13        2.98035
             Ti 1  -- Ti 19                  0.12        2.98090
             Ti 16 -- Ti 24                  0.14        2.98096
             Ti 63 -- V 3                    0.17        2.98112
             Ti 2  -- Ti 9                   0.10        2.98114
             Ti 31 -- Ti 61                  0.08        2.98130
             Ti 27 -- Ti 41                  0.16        2.98141
             Ti 9  -- Ti 11                  0.14        2.98148
             Ti 21 -- Ti 60                  0.15        2.98247
             Ti 43 -- Ti 45                  0.20        2.98272
              Al 1 -- Ti 22                  0.16        2.98306
              Al 1 -- Ti 65                  0.16        2.98434
             Ti 58 -- Ti 60                  0.15        2.98446
             Ti 6  -- Ti 68                  0.11        2.98467
             Ti 41 -- Ti 50                  0.13        2.98492
             Ti 19 -- Ti 27                  0.11        2.98571
             Ti 53 -- Ti 55                  0.05        2.98688
              Al 1 -- Ti 19                  0.15        2.98689
             Ti 3  -- Ti 27                  0.14        2.98689
             Ti 12 -- Ti 49                  0.13        2.98778
              Al 4 -- Ti 35                  0.17        2.98795
             Ti 20 -- Ti 21                  0.10        2.98920
             Ti 26 -- Ti 45                  0.10        2.98967
             Ti 1  -- Ti 2                   0.12        2.98985
             Ti 15 -- Ti 52                  0.09        2.99002
              Al 5 -- Ti 41                  0.16        2.99158
             Ti 38 -- Ti 69                  0.12        2.99208
             Ti 47 -- Ti 49                  0.09        2.99214
             Ti 4  -- Ti 6                   0.12        2.99230
             Ti 10 -- Ti 12                  0.11        2.99262
             Ti 18 -- Ti 57                  0.13        2.99281
             Ti 13 -- Ti 42                  0.12        2.99286
             Ti 19 -- Ti 30                  0.13        2.99303
             Ti 23 -- Ti 42                  0.12        2.99351
             Ti 11 -- Ti 12                  0.10        2.99431
              Al 7 -- Ti 32                  0.17        2.99518
             Ti 34 -- Ti 40                  0.12        2.99702
             Ti 50 -- Ti 64                  0.13        2.99712
             Ti 13 -- Ti 15                  0.12        2.99761
             Ti 24 -- Ti 25                  0.14        2.99762
              Al 1 -- Ti 3                   0.15        2.99835
             Ti 26 -- Ti 32                  0.14        2.99897
             Ti 6  -- Ti 55                  0.12        2.99904
             Ti 18 -- Ti 25                  0.13        2.99991
             Ti 18 -- Ti 65                  0.12        2.99996
======================================================================

 
 A BibTeX formatted list of references used in this run has been written to 
 sqs_hex_sc3x3x3_Ti70Al8V3_frame0_12.bib
 
Initialisation time =     22.70 s
Calculation time    =   6471.41 s
Finalisation time   =      0.45 s
Total time          =   6494.55 s
Peak Memory Use     = 2622012 kB
 
Overall parallel efficiency rating: Mediocre (57%)
 
Data was distributed by:-
G-vector (16-way); efficiency rating: Mediocre (59%)
k-point (15-way); efficiency rating: Excellent (95%)
