 +-------------------------------------------------+
 |                                                 |
 |      CCC   AA    SSS  TTTTT  EEEEE  PPPP        |
 |     C     A  A  S       T    E      P   P       |
 |     C     AAAA   SS     T    EEE    PPPP        |
 |     C     A  A     S    T    E      P           |
 |      CCC  A  A  SSS     T    EEEEE  P           |
 |                                                 |
 +-------------------------------------------------+
 |                                                 |
 | Welcome to Academic Release CASTEP version 24.1 |
 | Ab Initio Total Energy Program                  |
 |                                                 |
 | Authors:                                        |
 | M. Segall, M. Probert, C. Pickard, P. Hasnip,   |
 | S. Clark, K. Refson, J. R. Yates,               |
 | A. Bartok-Partay, M. Payne                      |
 |                                                 |
 | Contributors:                                   |
 | P. Lindan, P. Haynes, J. White, V. Milman,      |
 | N. Govind, M. Gibson, P. Tulip, V. Cocula,      |
 | B. Montanari, D. Quigley, M. Glover,            |
 | L. Bernasconi, A. Perlov, M. Plummer,           |
 | E. McNellis, J. Meyer, J. Gale, D. Jochym       |
 | J. Aarons, B. Walker, R. Gillen, D. Jones       |
 | T. Green, I. J. Bush, C. J. Armstrong,          |
 | E. J. Higgins, E. L. Brown, M. S. McFly,        |
 | J. Wilkins, B-C. Shih, P. J. P. Byrne,          |
 | R. J. Maurer, J. C. Womack, J. Dziedzic,        |
 | L. LeBlanc, T. K. Stenczel, J. Kermode,         |
 | S. Sturniolo, B. Shi, B. Durham, M. Evans,      |
 | M. J. Smith, A. Tamerus, Z. Hawkhead,           |
 | V. Ravindran, T. Hollins, S. A. Joyce,          |
 | R. T. Strong, A. M. Reilly                      |
 |                                                 |
 | Copyright (c) 2000 - 2023                       |
 |                                                 |
 |     Distributed under license from Cambridge    |
 |     Enterprise for academic use only.           |
 |                                                 |
 | Please cite                                     |
 |                                                 |
 |     "First principles methods using CASTEP"     |
 |                                                 |
 |         Zeitschrift fuer Kristallographie       |
 |           220(5-6) pp. 567-570 (2005)           |
 |                                                 |
 | S. J. Clark, M. D. Segall, C. J. Pickard,       |
 | P. J. Hasnip, M. J. Probert, K. Refson,         |
 | M. C. Payne                                     |
 |                                                 |
 |       in all publications arising from          |
 |              your use of CASTEP                 |
 |                                                 |
 +-------------------------------------------------+
 |                                                 |
 |              http://www.castep.org              |
 |                                                 |
 +-------------------------------------------------+



 Compiled for linux_x86_64_gfortran10 on Tue, 02 May 2023 15:31:46 +0100
 from code version db08e394c+  default  Mon May 1 16:40:39 2023 +0100
 Compiler: GNU Fortran 10.2.0; Optimisation: fast
 Comms   : Open MPI v4.0.5
 MATHLIBS: openblas (LAPACK version 3.9.0)
 FFT Lib : fftw3 version fftw-3.3.8-sse2-avx-avx2-avx2_128
 Fundamental constants values: CODATA 2018

 Run started: Wed, 07 Feb 2024 11:23:01 +0000
 Info: number of up-spin electrons is not equal to the
       number of down-spins but spin_polarized=false
     - consider setting spin_polarized=true.

 Atomic calculation performed for Al: 1s2 2s2 2p6 3s2 3p1

 Converged in 54 iterations to an ae energy of -6603.783 eV

   ============================================================                
   | Pseudopotential Report - Date of generation  7-02-2024   |                
   ------------------------------------------------------------                
   | Element: Al Ionic charge:  3.00 Level of theory: PBE     |                
   | Atomic Solver: Koelling-Harmon                           |                
   |                                                          |                
   |               Reference Electronic Structure             |                
   |         Orbital         Occupation         Energy        |                
   |            3s              2.000           -0.285        |                
   |            3p              1.000           -0.100        |                
   |                                                          |                
   |                 Pseudopotential Definition               |                
   |        Beta     l      e      Rc     scheme   norm       |                
   |          1      0   -0.285   2.192     qc      0         |                
   |          2      0    0.250   2.192     qc      0         |                
   |          3      1   -0.100   2.192     qc      0         |                
   |          4      1    0.250   2.192     qc      0         |                
   |          5      2    0.000   2.000     qc      0         |                
   |          6      2    0.250   2.000     qc      0         |                
   |         loc     3    0.000   2.192     pn      0         |                
   |                                                          |                
   | Augmentation charge Rinner = 1.398                       |                
   | Partial core correction Rc = 1.398                       |                
   ------------------------------------------------------------                
   | "3|2.2|2.2|1.4|4|5|5|30:31:32U2U2"                       |                
   ------------------------------------------------------------                
   |      Author: Chris J. Pickard, Cambridge University      |                
   ============================================================                

 Atomic calculation performed for Ti: 1s2 2s2 2p6 3s2 3p6 3d2 4s2

 Converged in 79 iterations to an ae energy of -23226.658 eV

   ============================================================                
   | Pseudopotential Report - Date of generation  7-02-2024   |                
   ------------------------------------------------------------                
   | Element: Ti Ionic charge: 12.00 Level of theory: PBE     |                
   | Atomic Solver: Koelling-Harmon                           |                
   |                                                          |                
   |               Reference Electronic Structure             |                
   |         Orbital         Occupation         Energy        |                
   |            3s              2.000           -2.302        |                
   |            3p              6.000           -1.428        |                
   |            4s              2.000           -0.164        |                
   |            3d              2.000           -0.157        |                
   |                                                          |                
   |                 Pseudopotential Definition               |                
   |        Beta     l      e      Rc     scheme   norm       |                
   |          1      0   -2.302   1.793     qc      0         |                
   |          2      0   -0.164   1.793     qc      0         |                
   |          3      0    0.250   1.793     qc      0         |                
   |          4      1   -1.428   1.793     qc      0         |                
   |          5      1    0.250   1.793     qc      0         |                
   |          6      2   -0.157   1.793     qc      0         |                
   |          7      2    0.250   1.793     qc      0         |                
   |         loc     3    0.000   1.793     pn      0         |                
   |                                                          |                
   | Augmentation charge Rinner = 1.263                       |                
   | Partial core correction Rc = 1.263                       |                
   ------------------------------------------------------------                
   | "3|1.8|9|10|11|30U:40:31:32(qc=5.5)"                     |                
   ------------------------------------------------------------                
   |      Author: Chris J. Pickard, Cambridge University      |                
   ============================================================                

 Atomic calculation performed for V: 1s2 2s2 2p6 3s2 3p6 3d3 4s2

 Converged in 81 iterations to an ae energy of -25823.733 eV

   ============================================================                
   | Pseudopotential Report - Date of generation  7-02-2024   |                
   ------------------------------------------------------------                
   | Element: V Ionic charge: 13.00 Level of theory: PBE      |                
   | Atomic Solver: Koelling-Harmon                           |                
   |                                                          |                
   |               Reference Electronic Structure             |                
   |         Orbital         Occupation         Energy        |                
   |            3s              2.000           -2.581        |                
   |            3p              6.000           -1.618        |                
   |            3d              3.000           -0.190        |                
   |            4s              2.000           -0.173        |                
   |                                                          |                
   |                 Pseudopotential Definition               |                
   |        Beta     l      e      Rc     scheme   norm       |                
   |          1      0   -2.581   1.803     qc      0         |                
   |          2      0   -0.173   1.803     qc      0         |                
   |          3      0    0.250   1.803     qc      0         |                
   |          4      1   -1.618   1.803     qc      0         |                
   |          5      1    0.250   1.803     qc      0         |                
   |          6      2   -0.190   1.803     qc      0         |                
   |          7      2    0.250   1.803     qc      0         |                
   |         loc     3    0.000   1.803     pn      0         |                
   |                                                          |                
   | Augmentation charge Rinner = 0.600                       |                
   | Partial core correction Rc = 0.600                       |                
   ------------------------------------------------------------                
   | "3|1.8|1.8|0.6|12|14|16|30U:40:31:32(qc=7)"              |                
   ------------------------------------------------------------                
   |      Author: Chris J. Pickard, Cambridge University      |                
   ============================================================                

 Pseudo atomic calculation performed for Al 3s2 3p1

 Converged in 15 iterations to a total energy of -107.1308 eV

 Pseudo atomic calculation performed for Ti 3s2 3p6 3d2 4s2

 Converged in 34 iterations to a total energy of -1587.0236 eV

 Pseudo atomic calculation performed for V 3s2 3p6 3d3 4s2

 Converged in 35 iterations to a total energy of -2065.7874 eV
 Calculation parallelised over 288 processes.
 Data is distributed by G-vector(16-way) and k-point(18-way)

 ************************************ Title ************************************
 

 ***************************** General Parameters ******************************
  
 output verbosity                               : normal  (1)
 write checkpoint data to                       : sqs_bcc_sc4x4x4_Ti55Al7V2_frame0_00.check
 type of calculation                            : single point energy
 stress calculation                             : on
 density difference calculation                 : off
 electron localisation func (ELF) calculation   : off
 Hirshfeld analysis                             : off
 polarisation (Berry phase) analysis            : off
 molecular orbital projected DOS                : off
 deltaSCF calculation                           : off
 unlimited duration calculation
 timing information                             : on
 memory usage estimate                          : on
 write extra output files                       : on
 write final potential to formatted file        : off
 write final density to formatted file          : off
 write BibTeX reference list                    : on
 write OTFG pseudopotential files               : on
 write electrostatic potential file             : on
 write bands file                               : on
 checkpoint writing                             : both castep_bin and check files
  
 output         length unit                     : A
 output           mass unit                     : amu
 output           time unit                     : ps
 output         charge unit                     : e
 output           spin unit                     : hbar/2
 output         energy unit                     : eV
 output          force unit                     : eV/A
 output       velocity unit                     : A/ps
 output       pressure unit                     : GPa
 output     inv_length unit                     : 1/A
 output      frequency unit                     : cm-1
 output force constant unit                     : eV/A**2
 output         volume unit                     : A**3
 output   IR intensity unit                     : (D/A)**2/amu
 output         dipole unit                     : D
 output         efield unit                     : eV/A/e
 output        entropy unit                     : J/mol/K
 output    efield chi2 unit                     : pm/V
  
 wavefunctions paging                           : none
 random number generator seed                   :  112302052
 data distribution                              : k-point only
 optimization strategy                          : maximize speed(+++)

 *********************** Exchange-Correlation Parameters ***********************
  
 using functional                               : Perdew Burke Ernzerhof
 relativistic treatment                         : Koelling-Harmon
 DFT+D: Semi-empirical dispersion correction    : off

 ************************* Pseudopotential Parameters **************************
  
 pseudopotential representation                 : reciprocal space
 <beta|phi> representation                      : reciprocal space
 spin-orbit coupling                            : off

 **************************** Basis Set Parameters *****************************
  
 plane wave basis set cut-off                   :   800.0000   eV
 size of standard grid                          :     2.0000
 size of   fine   gmax                          :    28.9810   1/A
 largest prime factor in FFT                    :          5
 finite basis set correction                    : automatic
 number of sample energies                      :          3
           sample  spacing                      :     5.0000   eV

 **************************** Electronic Parameters ****************************
  
 number of  electrons                           :  707.0    
 net charge of system                           :  0.000    
 treating system as non-spin-polarized
 number of bands                                :        389

 ********************* Electronic Minimization Parameters **********************
  
 Method: Treating system as metallic with density mixing treatment of electrons,
         and number of  SD  steps               :          1
         and number of  CG  steps               :          4
  
 total energy / atom convergence tol.           : 0.1000E-05   eV
 eigen-energy convergence tolerance             : 0.1645E-06   eV
 max force / atom convergence tol.              : ignored
 convergence tolerance window                   :          3   cycles
 max. number of SCF cycles                      :         30
 number of fixed-spin iterations                :         10
 smearing scheme                                : Gaussian
 smearing width                                 : 0.5000E-01   eV
 Fermi energy convergence tolerance             : 0.2721E-13   eV
 periodic dipole correction                     : NONE

 ************************** Density Mixing Parameters **************************
  
 density-mixing scheme                          : Pulay
 max. length of mixing history                  :         20
 charge density mixing amplitude                : 0.8000    
 cut-off energy for mixing                      :  800.0       eV
 charge density mixing g-vector                 :  1.500       1/A

 *********************** Population Analysis Parameters ************************
  
 Population analysis with cutoff                :  3.000       A
 Population analysis output                     : summary and pdos components

 ******************************* Developer Code ********************************
  
 PARALLEL: kpoint=18 : ENDPARALLEL
 no_improve_wvfn

 *******************************************************************************
  

                           -------------------------------
                                      Unit Cell
                           -------------------------------
        Real Lattice(A)                      Reciprocal Lattice(1/A)
    -6.3543850     6.4192260     6.4192260       -0.000000000   0.489403653   0.489403653
     6.3543850    -6.5489070     6.5489070        0.494397594   0.004845569   0.484558084
     6.3543850     6.5489070    -6.5489070        0.494397594   0.484558084   0.004845569

                       Lattice parameters(A)       Cell Angles
                    a =     11.081116          alpha =  111.091682
                    b =     11.231855          beta  =  108.930640
                    c =     11.231855          gamma =  108.930640

                       Current cell volume =          1068.525780       A**3
                                   density =             2.735955   AMU/A**3
                                           =             4.543161     g/cm^3

                           -------------------------------
                                     Cell Contents
                           -------------------------------
                         Total number of ions in cell =   64
                      Total number of species in cell =    3
                        Max number of any one species =   55

            xxxxxxxxxxxxxxxxxxxxxxxxxxxxxxxxxxxxxxxxxxxxxxxxxxxxxxxxxxxx
            x  Element    Atom        Fractional coordinates of atoms  x
            x            Number           u          v          w      x
            x----------------------------------------------------------x
            x  Al           1         0.063507   0.058872   0.052208   x 
            x  Al           2        -0.010010   0.728766   0.727563   x 
            x  Al           3         0.234372  -0.026666  -0.033164   x 
            x  Al           4         0.297275   0.806746   0.291952   x 
            x  Al           5         0.447559   0.691118  -0.050925   x 
            x  Al           6         0.747059   0.016880   0.743606   x 
            x  Al           7         0.788928   0.310351   0.790113   x 
            x  Ti           1        -0.023924  -0.021956   0.224734   x 
            x  Ti           2         0.005620  -0.015273   0.500300   x 
            x  Ti           3         0.017883   0.018973   0.774397   x 
            x  Ti           4         0.003686   0.258951  -0.001552   x 
            x  Ti           5         0.032251   0.266651   0.265733   x 
            x  Ti           6        -0.050437   0.195313   0.448006   x 
            x  Ti           7        -0.026028   0.233264   0.720081   x 
            x  Ti           8         0.043196   0.545036   0.039860   x 
            x  Ti           9        -0.031660   0.478134   0.238692   x 
            x  Ti          10        -0.003823   0.483369   0.509639   x 
            x  Ti          11        -0.000747   0.769749   0.004973   x 
            x  Ti          12         0.030358   0.768228   0.267213   x 
            x  Ti          13        -0.038657   0.705438   0.460581   x 
            x  Ti          14         0.255386   0.024096   0.255235   x 
            x  Ti          15         0.281296   0.020694   0.522342   x 
            x  Ti          16         0.272819   0.264806   0.032745   x 
            x  Ti          17         0.301161   0.311460   0.305465   x 
            x  Ti          18         0.221721   0.231834   0.485689   x 
            x  Ti          19         0.244565   0.232827   0.749466   x 
            x  Ti          20         0.227749   0.467303  -0.035291   x 
            x  Ti          21         0.248594   0.521986   0.247805   x 
            x  Ti          22         0.272562   0.522797   0.514646   x 
            x  Ti          23         0.195314   0.453740   0.706553   x 
            x  Ti          24         0.254288   0.750016   0.012458   x 
            x  Ti          25         0.226721   0.736886   0.478040   x 
            x  Ti          26         0.251212   0.741057   0.743259   x 
            x  Ti          27         0.498337  -0.024077  -0.001185   x 
            x  Ti          28         0.522967   0.022005   0.284237   x 
            x  Ti          29         0.549983   0.053145   0.549580   x 
            x  Ti          30         0.467468  -0.022359   0.738170   x 
            x  Ti          31         0.445292   0.186066  -0.053896   x 
            x  Ti          32         0.482577   0.231365   0.225719   x 
            x  Ti          33         0.503977   0.267129   0.505667   x 
            x  Ti          34         0.523089   0.268200   0.771885   x 
            x  Ti          35         0.499815   0.481633  -0.000367   x 
            x  Ti          36         0.519862   0.527627   0.282199   x 
            x  Ti          37         0.545557   0.554320   0.552370   x 
            x  Ti          38         0.466318   0.477255   0.730897   x 
            x  Ti          39         0.480598   0.734596   0.220485   x 
            x  Ti          40         0.500588   0.762616   0.496938   x 
            x  Ti          41         0.528304   0.767679   0.769826   x 
            x  Ti          42         0.784455   0.024952   0.013983   x 
            x  Ti          43         0.699020  -0.057177   0.193902   x 
            x  Ti          44         0.737440  -0.024442   0.466915   x 
            x  Ti          45         0.723159   0.233898  -0.022204   x 
            x  Ti          46         0.748111   0.234726   0.248454   x 
            x  Ti          47         0.770345   0.270297   0.527161   x 
            x  Ti          48         0.779114   0.522354   0.020224   x 
            x  Ti          49         0.698741   0.446075   0.200727   x 
            x  Ti          50         0.730604   0.480106   0.475162   x 
            x  Ti          51         0.758886   0.530749   0.752483   x 
            x  Ti          52         0.716536   0.727214  -0.021300   x 
            x  Ti          53         0.753736   0.735280   0.254277   x 
            x  Ti          54         0.770254   0.765150   0.540594   x 
            x  Ti          55         0.804631   0.812818   0.807511   x 
            x  V            1         0.009368   0.509759   0.775876   x 
            x  V            2         0.201073  -0.050407   0.701296   x 
            xxxxxxxxxxxxxxxxxxxxxxxxxxxxxxxxxxxxxxxxxxxxxxxxxxxxxxxxxxxx


                         No user defined ionic velocities

                           -------------------------------
                                   Details of Species
                           -------------------------------

                               Mass of species in AMU
                                    Al   26.9815400
                                    Ti   47.8670000
                                    V   50.9415000

                          Electric Quadrupole Moment (Barn)
                                    Al    0.1466000 Isotope 27
                                    Ti    0.3020000 Isotope 47
                                    V   -0.0520000 Isotope 51

                          Files used for pseudopotentials:
                                    Al 3|2.2|2.2|1.4|4|5|5|30:31:32U2U2
                                    Ti 3|1.8|9|10|11|30U:40:31:32(qc=5.5)
                                    V 3|1.8|1.8|0.6|12|14|16|30U:40:31:32(qc=7)

                           -------------------------------
                              k-Points For BZ Sampling
                           -------------------------------
                       MP grid size for SCF calculation is  6  6  6
                            with an offset of   0.000  0.000  0.000
                       Number of kpoints used =           108

                           -------------------------------
                               Symmetry and Constraints
                           -------------------------------

                      Maximum deviation from symmetry =  0.00000         ANG

                      Number of symmetry operations   =           1
                      Number of ionic constraints     =           3
                      Point group of crystal =     1: C1, 1, 1
                      Space group of crystal =     1: P1, P 1

             Set iprint > 1 for details on symmetry rotations/translations

                         Centre of mass is constrained
             Set iprint > 1 for details of linear ionic constraints

                         Number of cell constraints= 0
                         Cell constraints are:  1 2 3 4 5 6

                         External pressure/stress (GPa)
                          0.00000   0.00000   0.00000
                                    0.00000   0.00000
                                              0.00000
 
+---------------- MEMORY AND SCRATCH DISK ESTIMATES PER PROCESS --------------+
|                                                     Memory          Disk    |
| Baseline code, static data and system overhead      591.0 MB         0.0 MB |
| BLAS internal memory storage                          0.0 MB         0.0 MB |
| Model and support data                              820.5 MB         0.0 MB |
| Electronic energy minimisation requirements         322.7 MB         0.0 MB |
| Force calculation requirements                       11.6 MB         0.0 MB |
| Stress calculation requirements                      12.8 MB         0.0 MB |
|                                               ----------------------------- |
| Approx. total storage required per process         1734.2 MB         0.0 MB |
|                                                                             |
| Requirements will fluctuate during execution and may exceed these estimates |
+-----------------------------------------------------------------------------+
Calculating finite basis set correction with  3 cut-off energies.
Calculating total energy with cut-off of  790.000 eV.
------------------------------------------------------------------------ <-- SCF
SCF loop      Energy           Fermi           Energy gain       Timer   <-- SCF
                               energy          per atom          (sec)   <-- SCF
------------------------------------------------------------------------ <-- SCF
Initial  -8.32366769E+004  0.00000000E+000                        39.62  <-- SCF
      1  -9.02134090E+004  1.18922963E+001   1.09011439E+002     190.84  <-- SCF
      2  -9.24625980E+004  9.20525059E+000   3.51435782E+001     312.18  <-- SCF
      3  -9.25906419E+004  9.03456782E+000   2.00068550E+000     438.13  <-- SCF
      4  -9.26106460E+004  8.25149279E+000   3.12563745E-001     589.52  <-- SCF
      5  -9.25956339E+004  8.45009818E+000  -2.34563747E-001     748.06  <-- SCF
      6  -9.25911318E+004  8.62940961E+000  -7.03451358E-002     897.21  <-- SCF
      7  -9.25886628E+004  8.64589390E+000  -3.85786462E-002    1051.27  <-- SCF
      8  -9.25887114E+004  8.61104985E+000   7.58952970E-004    1202.45  <-- SCF
      9  -9.25883879E+004  8.58780343E+000  -5.05427193E-003    1346.09  <-- SCF
     10  -9.25884516E+004  8.58168534E+000   9.95138691E-004    1499.48  <-- SCF
     11  -9.25883483E+004  8.57589106E+000  -1.61453806E-003    1639.18  <-- SCF
     12  -9.25883285E+004  8.57576028E+000  -3.08584320E-004    1788.62  <-- SCF
     13  -9.25883297E+004  8.57494258E+000   1.90032146E-005    1934.14  <-- SCF
     14  -9.25883270E+004  8.57461707E+000  -4.20957257E-005    2061.38  <-- SCF
     15  -9.25883275E+004  8.57468287E+000   7.19573925E-006    2189.09  <-- SCF
     16  -9.25883271E+004  8.57473462E+000  -5.97025935E-006    2303.41  <-- SCF
     17  -9.25883271E+004  8.57473373E+000  -9.58376449E-008    2389.43  <-- SCF
     18  -9.25883271E+004  8.57476718E+000  -1.18687961E-007    2474.09  <-- SCF
------------------------------------------------------------------------ <-- SCF
 
Final energy, E             =  -92588.21344383     eV
Final free energy (E-TS)    =  -92588.32709048     eV
(energies not corrected for finite basis set)
 
NB est. 0K energy (E-0.5TS)      =  -92588.27026716     eV
 
Calculating total energy with cut-off of  795.000 eV.
------------------------------------------------------------------------ <-- SCF
SCF loop      Energy           Fermi           Energy gain       Timer   <-- SCF
                               energy          per atom          (sec)   <-- SCF
------------------------------------------------------------------------ <-- SCF
Initial  -9.25882134E+004  0.00000000E+000                      2500.26  <-- SCF
      1  -9.25883294E+004  8.57493748E+000   1.81319829E-003    2615.55  <-- SCF
      2  -9.25883297E+004  8.57493574E+000   4.54449996E-006    2737.18  <-- SCF
      3  -9.25883866E+004  8.57293089E+000   8.88401708E-004    2878.93  <-- SCF
      4  -9.25883284E+004  8.57523236E+000  -9.08910911E-004    3018.41  <-- SCF
      5  -9.25883281E+004  8.57486337E+000  -4.99931061E-006    3149.64  <-- SCF
      6  -9.25883283E+004  8.57482185E+000   2.96456020E-006    3268.43  <-- SCF
      7  -9.25883283E+004  8.57477734E+000  -1.86394942E-007    3355.46  <-- SCF
      8  -9.25883282E+004  8.57475805E+000  -6.90385722E-008    3438.13  <-- SCF
------------------------------------------------------------------------ <-- SCF
 
Final energy, E             =  -92588.21459566     eV
Final free energy (E-TS)    =  -92588.32824750     eV
(energies not corrected for finite basis set)
 
NB est. 0K energy (E-0.5TS)      =  -92588.27142158     eV
 
Calculating total energy with cut-off of  800.000 eV.
------------------------------------------------------------------------ <-- SCF
SCF loop      Energy           Fermi           Energy gain       Timer   <-- SCF
                               energy          per atom          (sec)   <-- SCF
------------------------------------------------------------------------ <-- SCF
Initial  -9.25882145E+004  0.00000000E+000                      3463.90  <-- SCF
      1  -9.25883303E+004  8.57467031E+000   1.80922955E-003    3571.40  <-- SCF
      2  -9.25883306E+004  8.57466870E+000   4.12501641E-006    3690.33  <-- SCF
      3  -9.25883671E+004  8.57554694E+000   5.70817282E-004    3834.61  <-- SCF
      4  -9.25883292E+004  8.57455114E+000  -5.92471078E-004    3974.59  <-- SCF
      5  -9.25883292E+004  8.57479953E+000   5.21617012E-007    4107.36  <-- SCF
      6  -9.25883293E+004  8.57476216E+000   1.60663926E-006    4216.00  <-- SCF
      7  -9.25883293E+004  8.57477144E+000  -1.12328728E-007    4301.91  <-- SCF
      8  -9.25883293E+004  8.57476538E+000  -2.54380924E-008    4383.88  <-- SCF
------------------------------------------------------------------------ <-- SCF
 
Final energy, E             =  -92588.21569168     eV
Final free energy (E-TS)    =  -92588.32933689     eV
(energies not corrected for finite basis set)
 
NB est. 0K energy (E-0.5TS)      =  -92588.27251429     eV
 
 For future reference: finite basis dEtot/dlog(Ecut) =      -0.178539eV
 Total energy corrected for finite basis set =  -92588.329338 eV

 ************************** Forces **************************
 *                                                          *
 *               Cartesian components (eV/A)                *
 * -------------------------------------------------------- *
 *                         x            y            z      *
 *                                                          *
 * Al              1      0.09626     -0.02760     -0.08020 *
 * Al              2      0.05465      0.09131     -0.02731 *
 * Al              3      0.02919      0.23682      0.06295 *
 * Al              4      0.08739     -0.10736     -0.00116 *
 * Al              5     -0.03891     -0.03141      0.05001 *
 * Al              6      0.01734      0.16595     -0.02892 *
 * Al              7      0.04777      0.16480     -0.03922 *
 * Ti              1     -0.24772      0.16294      0.09023 *
 * Ti              2      0.06215      0.04902      0.00760 *
 * Ti              3      0.18860     -0.03726     -0.01377 *
 * Ti              4     -0.07800      0.04125     -0.16634 *
 * Ti              5      0.21243     -0.18028     -0.00278 *
 * Ti              6     -0.17484     -0.12719     -0.10386 *
 * Ti              7     -0.09592      0.15961     -0.13082 *
 * Ti              8      0.08403      0.11090      0.12005 *
 * Ti              9     -0.02758      0.04867     -0.07972 *
 * Ti             10     -0.00953     -0.00921      0.08823 *
 * Ti             11     -0.01290     -0.04398      0.18092 *
 * Ti             12      0.09110     -0.08789     -0.14703 *
 * Ti             13     -0.00648     -0.11119     -0.05419 *
 * Ti             14      0.07427     -0.11259      0.00553 *
 * Ti             15      0.17652     -0.13647      0.10991 *
 * Ti             16      0.17418     -0.15694      0.04712 *
 * Ti             17      0.12588      0.09872      0.19561 *
 * Ti             18     -0.09412      0.09824     -0.12013 *
 * Ti             19      0.04367      0.00442      0.11319 *
 * Ti             20     -0.01266     -0.06896      0.03090 *
 * Ti             21     -0.03225      0.03961     -0.04158 *
 * Ti             22      0.16320     -0.05849      0.12581 *
 * Ti             23     -0.12734     -0.14123     -0.04309 *
 * Ti             24     -0.03821     -0.20285     -0.02575 *
 * Ti             25     -0.10232     -0.04179     -0.05794 *
 * Ti             26      0.03698      0.17530      0.09090 *
 * Ti             27     -0.14055     -0.02447      0.19224 *
 * Ti             28      0.06169     -0.14086      0.09307 *
 * Ti             29      0.08660      0.00122      0.19456 *
 * Ti             30     -0.16633      0.05173     -0.11849 *
 * Ti             31     -0.05313     -0.05324     -0.09941 *
 * Ti             32     -0.01160      0.12432     -0.12189 *
 * Ti             33     -0.09444      0.11274     -0.09011 *
 * Ti             34      0.05537     -0.08686      0.00460 *
 * Ti             35      0.06028     -0.01069      0.01374 *
 * Ti             36     -0.00282     -0.08387      0.08543 *
 * Ti             37      0.06132      0.07945      0.09960 *
 * Ti             38     -0.09349      0.09642     -0.01832 *
 * Ti             39      0.07488      0.08268     -0.04706 *
 * Ti             40     -0.05143      0.00087     -0.05191 *
 * Ti             41      0.31711     -0.08277     -0.02001 *
 * Ti             42      0.19101     -0.05298     -0.02484 *
 * Ti             43      0.00815     -0.01227     -0.07571 *
 * Ti             44      0.00123      0.11936     -0.08026 *
 * Ti             45     -0.14607      0.03535      0.07043 *
 * Ti             46      0.04150     -0.00991      0.11750 *
 * Ti             47     -0.04397     -0.02782     -0.00721 *
 * Ti             48      0.17405     -0.09297     -0.02592 *
 * Ti             49     -0.06879     -0.11612     -0.23480 *
 * Ti             50     -0.15030      0.11400     -0.16952 *
 * Ti             51     -0.13286      0.07249      0.00601 *
 * Ti             52     -0.16166      0.06744      0.01686 *
 * Ti             53      0.02500     -0.06952      0.01905 *
 * Ti             54     -0.03565     -0.11119      0.08031 *
 * Ti             55     -0.03609     -0.04394      0.04824 *
 * V               1     -0.20055     -0.02497     -0.00485 *
 * V               2     -0.23531      0.12151     -0.00650 *
 *                                                          *
 ************************************************************

 ***************** Stress Tensor *****************
 *                                               *
 *          Cartesian components (GPa)           *
 * --------------------------------------------- *
 *             x             y             z     *
 *                                               *
 *  x     -1.923352     -1.259381     -0.004385  *
 *  y     -1.259381     -4.230810     -2.640289  *
 *  z     -0.004385     -2.640289     -0.896414  *
 *                                               *
 *  Pressure:    2.3502                          *
 *                                               *
 *************************************************

 Pseudo atomic calculation performed for Al 3s2 3p1

 Converged in 15 iterations to a total energy of -107.1308 eV

 Pseudo atomic calculation performed for Ti 3s2 3p6 3d2 4s2

 Converged in 34 iterations to a total energy of -1587.0236 eV

 Pseudo atomic calculation performed for V 3s2 3p6 3d3 4s2

 Converged in 35 iterations to a total energy of -2065.7874 eV
Charge spilling parameter for spin component 1 = 0.09%

            Orbital Populations       
     Ion    Atom   Orbital             Charge
  -------------------------------------------
     Al     1      S                    0.954
     Al     1      Px                   0.682
     Al     1      Py                   0.716
     Al     1      Pz                   0.725
     Al     2      S                    0.933
     Al     2      Px                   0.681
     Al     2      Py                   0.686
     Al     2      Pz                   0.699
     Al     3      S                    0.951
     Al     3      Px                   0.677
     Al     3      Py                   0.692
     Al     3      Pz                   0.709
     Al     4      S                    0.951
     Al     4      Px                   0.716
     Al     4      Py                   0.695
     Al     4      Pz                   0.725
     Al     5      S                    0.952
     Al     5      Px                   0.716
     Al     5      Py                   0.704
     Al     5      Pz                   0.717
     Al     6      S                    0.938
     Al     6      Px                   0.681
     Al     6      Py                   0.699
     Al     6      Pz                   0.673
     Al     7      S                    0.964
     Al     7      Px                   0.704
     Al     7      Py                   0.693
     Al     7      Pz                   0.709
     Ti     1      S                    2.003
     Ti     1      Px                   2.007
     Ti     1      Py                   2.006
     Ti     1      Pz                   2.006
     Ti     1      S                    0.268
     Ti     1      Dzz                  0.505
     Ti     1      Dzy                  0.609
     Ti     1      Dzx                  0.526
     Ti     1      Dxx-yy               0.573
     Ti     1      Dxy                  0.524
     Ti     1      Px                   0.310
     Ti     1      Py                   0.328
     Ti     1      Pz                   0.294
     Ti     2      S                    2.002
     Ti     2      Px                   2.005
     Ti     2      Py                   2.006
     Ti     2      Pz                   2.005
     Ti     2      S                    0.291
     Ti     2      Dzz                  0.565
     Ti     2      Dzy                  0.535
     Ti     2      Dzx                  0.496
     Ti     2      Dxx-yy               0.554
     Ti     2      Dxy                  0.535
     Ti     2      Px                   0.343
     Ti     2      Py                   0.338
     Ti     2      Pz                   0.332
     Ti     3      S                    2.002
     Ti     3      Px                   2.005
     Ti     3      Py                   2.005
     Ti     3      Pz                   2.006
     Ti     3      S                    0.281
     Ti     3      Dzz                  0.630
     Ti     3      Dzy                  0.514
     Ti     3      Dzx                  0.501
     Ti     3      Dxx-yy               0.520
     Ti     3      Dxy                  0.573
     Ti     3      Px                   0.279
     Ti     3      Py                   0.267
     Ti     3      Pz                   0.291
     Ti     4      S                    2.002
     Ti     4      Px                   2.004
     Ti     4      Py                   2.005
     Ti     4      Pz                   2.005
     Ti     4      S                    0.294
     Ti     4      Dzz                  0.583
     Ti     4      Dzy                  0.542
     Ti     4      Dzx                  0.503
     Ti     4      Dxx-yy               0.512
     Ti     4      Dxy                  0.556
     Ti     4      Px                   0.319
     Ti     4      Py                   0.284
     Ti     4      Pz                   0.325
     Ti     5      S                    2.004
     Ti     5      Px                   2.007
     Ti     5      Py                   2.007
     Ti     5      Pz                   2.006
     Ti     5      S                    0.290
     Ti     5      Dzz                  0.516
     Ti     5      Dzy                  0.585
     Ti     5      Dzx                  0.554
     Ti     5      Dxx-yy               0.547
     Ti     5      Dxy                  0.546
     Ti     5      Px                   0.307
     Ti     5      Py                   0.322
     Ti     5      Pz                   0.327
     Ti     6      S                    2.006
     Ti     6      Px                   2.008
     Ti     6      Py                   2.008
     Ti     6      Pz                   2.008
     Ti     6      S                    0.295
     Ti     6      Dzz                  0.536
     Ti     6      Dzy                  0.572
     Ti     6      Dzx                  0.579
     Ti     6      Dxx-yy               0.527
     Ti     6      Dxy                  0.584
     Ti     6      Px                   0.320
     Ti     6      Py                   0.321
     Ti     6      Pz                   0.323
     Ti     7      S                    2.004
     Ti     7      Px                   2.006
     Ti     7      Py                   2.007
     Ti     7      Pz                   2.006
     Ti     7      S                    0.292
     Ti     7      Dzz                  0.530
     Ti     7      Dzy                  0.568
     Ti     7      Dzx                  0.516
     Ti     7      Dxx-yy               0.515
     Ti     7      Dxy                  0.610
     Ti     7      Px                   0.322
     Ti     7      Py                   0.328
     Ti     7      Pz                   0.298
     Ti     8      S                    2.003
     Ti     8      Px                   2.006
     Ti     8      Py                   2.006
     Ti     8      Pz                   2.006
     Ti     8      S                    0.286
     Ti     8      Dzz                  0.545
     Ti     8      Dzy                  0.547
     Ti     8      Dzx                  0.554
     Ti     8      Dxx-yy               0.537
     Ti     8      Dxy                  0.569
     Ti     8      Px                   0.346
     Ti     8      Py                   0.319
     Ti     8      Pz                   0.323
     Ti     9      S                    2.002
     Ti     9      Px                   2.005
     Ti     9      Py                   2.005
     Ti     9      Pz                   2.005
     Ti     9      S                    0.294
     Ti     9      Dzz                  0.507
     Ti     9      Dzy                  0.595
     Ti     9      Dzx                  0.509
     Ti     9      Dxx-yy               0.591
     Ti     9      Dxy                  0.481
     Ti     9      Px                   0.312
     Ti     9      Py                   0.337
     Ti     9      Pz                   0.321
     Ti    10      S                    2.003
     Ti    10      Px                   2.005
     Ti    10      Py                   2.006
     Ti    10      Pz                   2.005
     Ti    10      S                    0.293
     Ti    10      Dzz                  0.532
     Ti    10      Dzy                  0.596
     Ti    10      Dzx                  0.514
     Ti    10      Dxx-yy               0.516
     Ti    10      Dxy                  0.549
     Ti    10      Px                   0.308
     Ti    10      Py                   0.317
     Ti    10      Pz                   0.331
     Ti    11      S                    2.002
     Ti    11      Px                   2.005
     Ti    11      Py                   2.005
     Ti    11      Pz                   2.005
     Ti    11      S                    0.306
     Ti    11      Dzz                  0.539
     Ti    11      Dzy                  0.561
     Ti    11      Dzx                  0.487
     Ti    11      Dxx-yy               0.558
     Ti    11      Dxy                  0.555
     Ti    11      Px                   0.298
     Ti    11      Py                   0.310
     Ti    11      Pz                   0.271
     Ti    12      S                    2.004
     Ti    12      Px                   2.006
     Ti    12      Py                   2.006
     Ti    12      Pz                   2.006
     Ti    12      S                    0.286
     Ti    12      Dzz                  0.516
     Ti    12      Dzy                  0.582
     Ti    12      Dzx                  0.529
     Ti    12      Dxx-yy               0.592
     Ti    12      Dxy                  0.521
     Ti    12      Px                   0.322
     Ti    12      Py                   0.322
     Ti    12      Pz                   0.327
     Ti    13      S                    2.005
     Ti    13      Px                   2.007
     Ti    13      Py                   2.007
     Ti    13      Pz                   2.007
     Ti    13      S                    0.285
     Ti    13      Dzz                  0.519
     Ti    13      Dzy                  0.566
     Ti    13      Dzx                  0.581
     Ti    13      Dxx-yy               0.548
     Ti    13      Dxy                  0.560
     Ti    13      Px                   0.300
     Ti    13      Py                   0.310
     Ti    13      Pz                   0.338
     Ti    14      S                    2.002
     Ti    14      Px                   2.004
     Ti    14      Py                   2.006
     Ti    14      Pz                   2.005
     Ti    14      S                    0.301
     Ti    14      Dzz                  0.560
     Ti    14      Dzy                  0.564
     Ti    14      Dzx                  0.509
     Ti    14      Dxx-yy               0.572
     Ti    14      Dxy                  0.504
     Ti    14      Px                   0.308
     Ti    14      Py                   0.284
     Ti    14      Pz                   0.324
     Ti    15      S                    2.004
     Ti    15      Px                   2.007
     Ti    15      Py                   2.006
     Ti    15      Pz                   2.006
     Ti    15      S                    0.279
     Ti    15      Dzz                  0.520
     Ti    15      Dzy                  0.585
     Ti    15      Dzx                  0.543
     Ti    15      Dxx-yy               0.529
     Ti    15      Dxy                  0.557
     Ti    15      Px                   0.300
     Ti    15      Py                   0.326
     Ti    15      Pz                   0.329
     Ti    16      S                    2.004
     Ti    16      Px                   2.006
     Ti    16      Py                   2.007
     Ti    16      Pz                   2.007
     Ti    16      S                    0.289
     Ti    16      Dzz                  0.559
     Ti    16      Dzy                  0.555
     Ti    16      Dzx                  0.520
     Ti    16      Dxx-yy               0.527
     Ti    16      Dxy                  0.593
     Ti    16      Px                   0.314
     Ti    16      Py                   0.327
     Ti    16      Pz                   0.290
     Ti    17      S                    2.006
     Ti    17      Px                   2.009
     Ti    17      Py                   2.007
     Ti    17      Pz                   2.008
     Ti    17      S                    0.298
     Ti    17      Dzz                  0.540
     Ti    17      Dzy                  0.555
     Ti    17      Dzx                  0.571
     Ti    17      Dxx-yy               0.544
     Ti    17      Dxy                  0.572
     Ti    17      Px                   0.300
     Ti    17      Py                   0.324
     Ti    17      Pz                   0.324
     Ti    18      S                    2.003
     Ti    18      Px                   2.006
     Ti    18      Py                   2.006
     Ti    18      Pz                   2.006
     Ti    18      S                    0.278
     Ti    18      Dzz                  0.520
     Ti    18      Dzy                  0.603
     Ti    18      Dzx                  0.508
     Ti    18      Dxx-yy               0.575
     Ti    18      Dxy                  0.508
     Ti    18      Px                   0.330
     Ti    18      Py                   0.333
     Ti    18      Pz                   0.322
     Ti    19      S                    2.002
     Ti    19      Px                   2.005
     Ti    19      Py                   2.005
     Ti    19      Pz                   2.004
     Ti    19      S                    0.286
     Ti    19      Dzz                  0.562
     Ti    19      Dzy                  0.528
     Ti    19      Dzx                  0.479
     Ti    19      Dxx-yy               0.544
     Ti    19      Dxy                  0.545
     Ti    19      Px                   0.332
     Ti    19      Py                   0.339
     Ti    19      Pz                   0.323
     Ti    20      S                    2.003
     Ti    20      Px                   2.006
     Ti    20      Py                   2.005
     Ti    20      Pz                   2.006
     Ti    20      S                    0.300
     Ti    20      Dzz                  0.549
     Ti    20      Dzy                  0.497
     Ti    20      Dzx                  0.544
     Ti    20      Dxx-yy               0.535
     Ti    20      Dxy                  0.573
     Ti    20      Px                   0.316
     Ti    20      Py                   0.357
     Ti    20      Pz                   0.303
     Ti    21      S                    2.002
     Ti    21      Px                   2.005
     Ti    21      Py                   2.005
     Ti    21      Pz                   2.004
     Ti    21      S                    0.296
     Ti    21      Dzz                  0.564
     Ti    21      Dzy                  0.539
     Ti    21      Dzx                  0.477
     Ti    21      Dxx-yy               0.552
     Ti    21      Dxy                  0.551
     Ti    21      Px                   0.320
     Ti    21      Py                   0.321
     Ti    21      Pz                   0.322
     Ti    22      S                    2.003
     Ti    22      Px                   2.006
     Ti    22      Py                   2.005
     Ti    22      Pz                   2.005
     Ti    22      S                    0.275
     Ti    22      Dzz                  0.524
     Ti    22      Dzy                  0.577
     Ti    22      Dzx                  0.508
     Ti    22      Dxx-yy               0.596
     Ti    22      Dxy                  0.499
     Ti    22      Px                   0.327
     Ti    22      Py                   0.331
     Ti    22      Pz                   0.323
     Ti    23      S                    2.005
     Ti    23      Px                   2.007
     Ti    23      Py                   2.008
     Ti    23      Pz                   2.007
     Ti    23      S                    0.286
     Ti    23      Dzz                  0.522
     Ti    23      Dzy                  0.587
     Ti    23      Dzx                  0.546
     Ti    23      Dxx-yy               0.549
     Ti    23      Dxy                  0.562
     Ti    23      Px                   0.334
     Ti    23      Py                   0.296
     Ti    23      Pz                   0.339
     Ti    24      S                    2.003
     Ti    24      Px                   2.005
     Ti    24      Py                   2.005
     Ti    24      Pz                   2.006
     Ti    24      S                    0.284
     Ti    24      Dzz                  0.582
     Ti    24      Dzy                  0.541
     Ti    24      Dzx                  0.531
     Ti    24      Dxx-yy               0.479
     Ti    24      Dxy                  0.598
     Ti    24      Px                   0.300
     Ti    24      Py                   0.270
     Ti    24      Pz                   0.313
     Ti    25      S                    2.004
     Ti    25      Px                   2.007
     Ti    25      Py                   2.007
     Ti    25      Pz                   2.006
     Ti    25      S                    0.276
     Ti    25      Dzz                  0.522
     Ti    25      Dzy                  0.609
     Ti    25      Dzx                  0.517
     Ti    25      Dxx-yy               0.563
     Ti    25      Dxy                  0.531
     Ti    25      Px                   0.334
     Ti    25      Py                   0.321
     Ti    25      Pz                   0.299
     Ti    26      S                    2.002
     Ti    26      Px                   2.005
     Ti    26      Py                   2.005
     Ti    26      Pz                   2.005
     Ti    26      S                    0.296
     Ti    26      Dzz                  0.548
     Ti    26      Dzy                  0.569
     Ti    26      Dzx                  0.505
     Ti    26      Dxx-yy               0.520
     Ti    26      Dxy                  0.560
     Ti    26      Px                   0.293
     Ti    26      Py                   0.310
     Ti    26      Pz                   0.334
     Ti    27      S                    2.002
     Ti    27      Px                   2.005
     Ti    27      Py                   2.006
     Ti    27      Pz                   2.005
     Ti    27      S                    0.298
     Ti    27      Dzz                  0.572
     Ti    27      Dzy                  0.565
     Ti    27      Dzx                  0.454
     Ti    27      Dxx-yy               0.559
     Ti    27      Dxy                  0.562
     Ti    27      Px                   0.315
     Ti    27      Py                   0.300
     Ti    27      Pz                   0.318
     Ti    28      S                    2.004
     Ti    28      Px                   2.006
     Ti    28      Py                   2.006
     Ti    28      Pz                   2.006
     Ti    28      S                    0.291
     Ti    28      Dzz                  0.550
     Ti    28      Dzy                  0.538
     Ti    28      Dzx                  0.532
     Ti    28      Dxx-yy               0.483
     Ti    28      Dxy                  0.615
     Ti    28      Px                   0.317
     Ti    28      Py                   0.296
     Ti    28      Pz                   0.306
     Ti    29      S                    2.004
     Ti    29      Px                   2.007
     Ti    29      Py                   2.007
     Ti    29      Pz                   2.006
     Ti    29      S                    0.295
     Ti    29      Dzz                  0.540
     Ti    29      Dzy                  0.562
     Ti    29      Dzx                  0.574
     Ti    29      Dxx-yy               0.541
     Ti    29      Dxy                  0.557
     Ti    29      Px                   0.326
     Ti    29      Py                   0.302
     Ti    29      Pz                   0.330
     Ti    30      S                    2.003
     Ti    30      Px                   2.006
     Ti    30      Py                   2.005
     Ti    30      Pz                   2.006
     Ti    30      S                    0.298
     Ti    30      Dzz                  0.537
     Ti    30      Dzy                  0.568
     Ti    30      Dzx                  0.504
     Ti    30      Dxx-yy               0.578
     Ti    30      Dxy                  0.507
     Ti    30      Px                   0.323
     Ti    30      Py                   0.328
     Ti    30      Pz                   0.298
     Ti    31      S                    2.006
     Ti    31      Px                   2.009
     Ti    31      Py                   2.007
     Ti    31      Pz                   2.008
     Ti    31      S                    0.291
     Ti    31      Dzz                  0.493
     Ti    31      Dzy                  0.596
     Ti    31      Dzx                  0.591
     Ti    31      Dxx-yy               0.535
     Ti    31      Dxy                  0.583
     Ti    31      Px                   0.318
     Ti    31      Py                   0.334
     Ti    31      Pz                   0.278
     Ti    32      S                    2.003
     Ti    32      Px                   2.005
     Ti    32      Py                   2.006
     Ti    32      Pz                   2.006
     Ti    32      S                    0.297
     Ti    32      Dzz                  0.589
     Ti    32      Dzy                  0.510
     Ti    32      Dzx                  0.523
     Ti    32      Dxx-yy               0.510
     Ti    32      Dxy                  0.594
     Ti    32      Px                   0.321
     Ti    32      Py                   0.315
     Ti    32      Pz                   0.318
     Ti    33      S                    2.002
     Ti    33      Px                   2.005
     Ti    33      Py                   2.005
     Ti    33      Pz                   2.004
     Ti    33      S                    0.285
     Ti    33      Dzz                  0.556
     Ti    33      Dzy                  0.556
     Ti    33      Dzx                  0.467
     Ti    33      Dxx-yy               0.538
     Ti    33      Dxy                  0.544
     Ti    33      Px                   0.332
     Ti    33      Py                   0.317
     Ti    33      Pz                   0.341
     Ti    34      S                    2.004
     Ti    34      Px                   2.007
     Ti    34      Py                   2.007
     Ti    34      Pz                   2.006
     Ti    34      S                    0.276
     Ti    34      Dzz                  0.512
     Ti    34      Dzy                  0.574
     Ti    34      Dzx                  0.541
     Ti    34      Dxx-yy               0.587
     Ti    34      Dxy                  0.527
     Ti    34      Px                   0.322
     Ti    34      Py                   0.333
     Ti    34      Pz                   0.315
     Ti    35      S                    2.002
     Ti    35      Px                   2.005
     Ti    35      Py                   2.005
     Ti    35      Pz                   2.004
     Ti    35      S                    0.296
     Ti    35      Dzz                  0.562
     Ti    35      Dzy                  0.541
     Ti    35      Dzx                  0.484
     Ti    35      Dxx-yy               0.562
     Ti    35      Dxy                  0.535
     Ti    35      Px                   0.331
     Ti    35      Py                   0.304
     Ti    35      Pz                   0.337
     Ti    36      S                    2.003
     Ti    36      Px                   2.006
     Ti    36      Py                   2.005
     Ti    36      Pz                   2.005
     Ti    36      S                    0.274
     Ti    36      Dzz                  0.585
     Ti    36      Dzy                  0.506
     Ti    36      Dzx                  0.512
     Ti    36      Dxx-yy               0.517
     Ti    36      Dxy                  0.591
     Ti    36      Px                   0.328
     Ti    36      Py                   0.341
     Ti    36      Pz                   0.331
     Ti    37      S                    2.006
     Ti    37      Px                   2.009
     Ti    37      Py                   2.008
     Ti    37      Pz                   2.009
     Ti    37      S                    0.303
     Ti    37      Dzz                  0.522
     Ti    37      Dzy                  0.578
     Ti    37      Dzx                  0.579
     Ti    37      Dxx-yy               0.530
     Ti    37      Dxy                  0.575
     Ti    37      Px                   0.322
     Ti    37      Py                   0.325
     Ti    37      Pz                   0.329
     Ti    38      S                    2.004
     Ti    38      Px                   2.007
     Ti    38      Py                   2.006
     Ti    38      Pz                   2.006
     Ti    38      S                    0.281
     Ti    38      Dzz                  0.503
     Ti    38      Dzy                  0.603
     Ti    38      Dzx                  0.544
     Ti    38      Dxx-yy               0.558
     Ti    38      Dxy                  0.525
     Ti    38      Px                   0.298
     Ti    38      Py                   0.334
     Ti    38      Pz                   0.320
     Ti    39      S                    2.003
     Ti    39      Px                   2.006
     Ti    39      Py                   2.006
     Ti    39      Pz                   2.006
     Ti    39      S                    0.288
     Ti    39      Dzz                  0.576
     Ti    39      Dzy                  0.539
     Ti    39      Dzx                  0.532
     Ti    39      Dxx-yy               0.520
     Ti    39      Dxy                  0.572
     Ti    39      Px                   0.298
     Ti    39      Py                   0.324
     Ti    39      Pz                   0.333
     Ti    40      S                    2.002
     Ti    40      Px                   2.005
     Ti    40      Py                   2.005
     Ti    40      Pz                   2.004
     Ti    40      S                    0.297
     Ti    40      Dzz                  0.564
     Ti    40      Dzy                  0.563
     Ti    40      Dzx                  0.462
     Ti    40      Dxx-yy               0.542
     Ti    40      Dxy                  0.558
     Ti    40      Px                   0.326
     Ti    40      Py                   0.299
     Ti    40      Pz                   0.331
     Ti    41      S                    2.004
     Ti    41      Px                   2.007
     Ti    41      Py                   2.006
     Ti    41      Pz                   2.006
     Ti    41      S                    0.291
     Ti    41      Dzz                  0.479
     Ti    41      Dzy                  0.630
     Ti    41      Dzx                  0.533
     Ti    41      Dxx-yy               0.579
     Ti    41      Dxy                  0.529
     Ti    41      Px                   0.316
     Ti    41      Py                   0.325
     Ti    41      Pz                   0.265
     Ti    42      S                    2.003
     Ti    42      Px                   2.006
     Ti    42      Py                   2.005
     Ti    42      Pz                   2.006
     Ti    42      S                    0.301
     Ti    42      Dzz                  0.534
     Ti    42      Dzy                  0.565
     Ti    42      Dzx                  0.521
     Ti    42      Dxx-yy               0.622
     Ti    42      Dxy                  0.485
     Ti    42      Px                   0.292
     Ti    42      Py                   0.305
     Ti    42      Pz                   0.311
     Ti    43      S                    2.005
     Ti    43      Px                   2.008
     Ti    43      Py                   2.007
     Ti    43      Pz                   2.007
     Ti    43      S                    0.303
     Ti    43      Dzz                  0.531
     Ti    43      Dzy                  0.569
     Ti    43      Dzx                  0.569
     Ti    43      Dxx-yy               0.527
     Ti    43      Dxy                  0.591
     Ti    43      Px                   0.323
     Ti    43      Py                   0.329
     Ti    43      Pz                   0.338
     Ti    44      S                    2.003
     Ti    44      Px                   2.006
     Ti    44      Py                   2.005
     Ti    44      Pz                   2.005
     Ti    44      S                    0.306
     Ti    44      Dzz                  0.588
     Ti    44      Dzy                  0.485
     Ti    44      Dzx                  0.504
     Ti    44      Dxx-yy               0.538
     Ti    44      Dxy                  0.586
     Ti    44      Px                   0.291
     Ti    44      Py                   0.322
     Ti    44      Pz                   0.332
     Ti    45      S                    2.003
     Ti    45      Px                   2.005
     Ti    45      Py                   2.005
     Ti    45      Pz                   2.005
     Ti    45      S                    0.292
     Ti    45      Dzz                  0.514
     Ti    45      Dzy                  0.603
     Ti    45      Dzx                  0.521
     Ti    45      Dxx-yy               0.539
     Ti    45      Dxy                  0.553
     Ti    45      Px                   0.293
     Ti    45      Py                   0.330
     Ti    45      Pz                   0.309
     Ti    46      S                    2.002
     Ti    46      Px                   2.004
     Ti    46      Py                   2.004
     Ti    46      Pz                   2.004
     Ti    46      S                    0.293
     Ti    46      Dzz                  0.582
     Ti    46      Dzy                  0.521
     Ti    46      Dzx                  0.481
     Ti    46      Dxx-yy               0.544
     Ti    46      Dxy                  0.538
     Ti    46      Px                   0.338
     Ti    46      Py                   0.337
     Ti    46      Pz                   0.336
     Ti    47      S                    2.004
     Ti    47      Px                   2.007
     Ti    47      Py                   2.007
     Ti    47      Pz                   2.007
     Ti    47      S                    0.258
     Ti    47      Dzz                  0.576
     Ti    47      Dzy                  0.529
     Ti    47      Dzx                  0.540
     Ti    47      Dxx-yy               0.519
     Ti    47      Dxy                  0.570
     Ti    47      Px                   0.312
     Ti    47      Py                   0.326
     Ti    47      Pz                   0.323
     Ti    48      S                    2.004
     Ti    48      Px                   2.007
     Ti    48      Py                   2.006
     Ti    48      Pz                   2.006
     Ti    48      S                    0.285
     Ti    48      Dzz                  0.502
     Ti    48      Dzy                  0.607
     Ti    48      Dzx                  0.555
     Ti    48      Dxx-yy               0.545
     Ti    48      Dxy                  0.524
     Ti    48      Px                   0.298
     Ti    48      Py                   0.334
     Ti    48      Pz                   0.329
     Ti    49      S                    2.005
     Ti    49      Px                   2.007
     Ti    49      Py                   2.007
     Ti    49      Pz                   2.007
     Ti    49      S                    0.292
     Ti    49      Dzz                  0.530
     Ti    49      Dzy                  0.574
     Ti    49      Dzx                  0.563
     Ti    49      Dxx-yy               0.540
     Ti    49      Dxy                  0.563
     Ti    49      Px                   0.336
     Ti    49      Py                   0.319
     Ti    49      Pz                   0.338
     Ti    50      S                    2.004
     Ti    50      Px                   2.006
     Ti    50      Py                   2.006
     Ti    50      Pz                   2.006
     Ti    50      S                    0.287
     Ti    50      Dzz                  0.603
     Ti    50      Dzy                  0.491
     Ti    50      Dzx                  0.501
     Ti    50      Dxx-yy               0.529
     Ti    50      Dxy                  0.617
     Ti    50      Px                   0.315
     Ti    50      Py                   0.328
     Ti    50      Pz                   0.312
     Ti    51      S                    2.002
     Ti    51      Px                   2.006
     Ti    51      Py                   2.006
     Ti    51      Pz                   2.005
     Ti    51      S                    0.296
     Ti    51      Dzz                  0.518
     Ti    51      Dzy                  0.538
     Ti    51      Dzx                  0.529
     Ti    51      Dxx-yy               0.547
     Ti    51      Dxy                  0.574
     Ti    51      Px                   0.331
     Ti    51      Py                   0.315
     Ti    51      Pz                   0.281
     Ti    52      S                    2.004
     Ti    52      Px                   2.006
     Ti    52      Py                   2.006
     Ti    52      Pz                   2.006
     Ti    52      S                    0.280
     Ti    52      Dzz                  0.518
     Ti    52      Dzy                  0.587
     Ti    52      Dzx                  0.535
     Ti    52      Dxx-yy               0.590
     Ti    52      Dxy                  0.495
     Ti    52      Px                   0.312
     Ti    52      Py                   0.333
     Ti    52      Pz                   0.317
     Ti    53      S                    2.002
     Ti    53      Px                   2.005
     Ti    53      Py                   2.005
     Ti    53      Pz                   2.004
     Ti    53      S                    0.302
     Ti    53      Dzz                  0.565
     Ti    53      Dzy                  0.545
     Ti    53      Dzx                  0.472
     Ti    53      Dxx-yy               0.544
     Ti    53      Dxy                  0.545
     Ti    53      Px                   0.328
     Ti    53      Py                   0.310
     Ti    53      Pz                   0.333
     Ti    54      S                    2.004
     Ti    54      Px                   2.006
     Ti    54      Py                   2.007
     Ti    54      Pz                   2.006
     Ti    54      S                    0.304
     Ti    54      Dzz                  0.564
     Ti    54      Dzy                  0.511
     Ti    54      Dzx                  0.552
     Ti    54      Dxx-yy               0.472
     Ti    54      Dxy                  0.657
     Ti    54      Px                   0.286
     Ti    54      Py                   0.290
     Ti    54      Pz                   0.324
     Ti    55      S                    2.005
     Ti    55      Px                   2.008
     Ti    55      Py                   2.007
     Ti    55      Pz                   2.008
     Ti    55      S                    0.299
     Ti    55      Dzz                  0.542
     Ti    55      Dzy                  0.570
     Ti    55      Dzx                  0.568
     Ti    55      Dxx-yy               0.528
     Ti    55      Dxy                  0.583
     Ti    55      Px                   0.286
     Ti    55      Py                   0.299
     Ti    55      Pz                   0.317
      V     1      S                    2.002
      V     1      Px                   2.004
      V     1      Py                   2.004
      V     1      Pz                   2.005
      V     1      Dzz                  0.648
      V     1      Dzy                  0.777
      V     1      Dzx                  0.868
      V     1      Dxx-yy               0.636
      V     1      Dxy                  0.842
      V     1      S                    0.320
      V     1      Px                   0.316
      V     1      Py                   0.322
      V     1      Pz                   0.288
      V     2      S                    2.003
      V     2      Px                   2.005
      V     2      Py                   2.005
      V     2      Pz                   2.004
      V     2      Dzz                  0.623
      V     2      Dzy                  0.849
      V     2      Dzx                  0.832
      V     2      Dxx-yy               0.698
      V     2      Dxy                  0.795
      V     2      S                    0.372
      V     2      Px                   0.336
      V     2      Py                   0.320
      V     2      Pz                   0.307
  -------------------------------------------
                           Total:     706.999
  -------------------------------------------

     Atomic Populations (Mulliken)
     -----------------------------
Species          Ion     s       p       d       f      Total   Charge (e)
==========================================================================
  Al              1     0.954   2.123   0.000   0.000   3.078    -0.078
  Al              2     0.933   2.066   0.000   0.000   2.999     0.001
  Al              3     0.951   2.078   0.000   0.000   3.030    -0.030
  Al              4     0.951   2.137   0.000   0.000   3.088    -0.088
  Al              5     0.952   2.136   0.000   0.000   3.088    -0.088
  Al              6     0.938   2.053   0.000   0.000   2.992     0.008
  Al              7     0.964   2.106   0.000   0.000   3.069    -0.069
  Ti              1     2.272   6.950   2.738   0.000  11.959     0.041
  Ti              2     2.293   7.028   2.685   0.000  12.005    -0.005
  Ti              3     2.283   6.854   2.738   0.000  11.875     0.125
  Ti              4     2.296   6.942   2.696   0.000  11.933     0.067
  Ti              5     2.294   6.974   2.748   0.000  12.016    -0.016
  Ti              6     2.301   6.989   2.797   0.000  12.086    -0.086
  Ti              7     2.296   6.967   2.739   0.000  12.002    -0.002
  Ti              8     2.289   7.006   2.753   0.000  12.048    -0.048
  Ti              9     2.297   6.984   2.683   0.000  11.964     0.036
  Ti             10     2.296   6.972   2.707   0.000  11.975     0.025
  Ti             11     2.308   6.894   2.701   0.000  11.902     0.098
  Ti             12     2.289   6.989   2.739   0.000  12.018    -0.018
  Ti             13     2.290   6.970   2.774   0.000  12.034    -0.034
  Ti             14     2.303   6.931   2.709   0.000  11.943     0.057
  Ti             15     2.283   6.973   2.734   0.000  11.990     0.010
  Ti             16     2.293   6.950   2.755   0.000  11.998     0.002
  Ti             17     2.304   6.973   2.781   0.000  12.057    -0.057
  Ti             18     2.281   7.003   2.713   0.000  11.997     0.003
  Ti             19     2.288   7.008   2.657   0.000  11.953     0.047
  Ti             20     2.303   6.993   2.698   0.000  11.994     0.006
  Ti             21     2.298   6.978   2.683   0.000  11.959     0.041
  Ti             22     2.278   6.998   2.704   0.000  11.979     0.021
  Ti             23     2.291   6.991   2.766   0.000  12.048    -0.048
  Ti             24     2.287   6.900   2.732   0.000  11.919     0.081
  Ti             25     2.280   6.974   2.741   0.000  11.995     0.005
  Ti             26     2.299   6.953   2.701   0.000  11.952     0.048
  Ti             27     2.300   6.949   2.714   0.000  11.963     0.037
  Ti             28     2.295   6.936   2.718   0.000  11.948     0.052
  Ti             29     2.298   6.978   2.774   0.000  12.050    -0.050
  Ti             30     2.301   6.966   2.695   0.000  11.963     0.037
  Ti             31     2.297   6.954   2.798   0.000  12.049    -0.049
  Ti             32     2.300   6.971   2.726   0.000  11.996     0.004
  Ti             33     2.287   7.003   2.661   0.000  11.951     0.049
  Ti             34     2.280   6.990   2.740   0.000  12.009    -0.009
  Ti             35     2.298   6.986   2.684   0.000  11.967     0.033
  Ti             36     2.277   7.016   2.712   0.000  12.006    -0.006
  Ti             37     2.309   7.001   2.785   0.000  12.095    -0.095
  Ti             38     2.284   6.971   2.733   0.000  11.988     0.012
  Ti             39     2.291   6.973   2.739   0.000  12.004    -0.004
  Ti             40     2.299   6.971   2.690   0.000  11.959     0.041
  Ti             41     2.295   6.924   2.749   0.000  11.969     0.031
  Ti             42     2.304   6.925   2.726   0.000  11.955     0.045
  Ti             43     2.308   7.012   2.788   0.000  12.108    -0.108
  Ti             44     2.309   6.961   2.702   0.000  11.972     0.028
  Ti             45     2.295   6.947   2.731   0.000  11.973     0.027
  Ti             46     2.294   7.024   2.665   0.000  11.983     0.017
  Ti             47     2.262   6.982   2.733   0.000  11.978     0.022
  Ti             48     2.289   6.980   2.733   0.000  12.002    -0.002
  Ti             49     2.297   7.014   2.770   0.000  12.081    -0.081
  Ti             50     2.291   6.973   2.739   0.000  12.004    -0.004
  Ti             51     2.299   6.943   2.707   0.000  11.949     0.051
  Ti             52     2.283   6.980   2.724   0.000  11.988     0.012
  Ti             53     2.303   6.984   2.672   0.000  11.960     0.040
  Ti             54     2.308   6.919   2.756   0.000  11.982     0.018
  Ti             55     2.304   6.925   2.790   0.000  12.019    -0.019
  V               1     2.322   6.940   3.771   0.000  13.033    -0.033
  V               2     2.375   6.977   3.797   0.000  13.149    -0.149
==========================================================================

                 Bond                   Population      Length (A)
======================================================================
             Ti 23 -- V 1                    0.18        2.60333
             Ti 3  -- V 2                    0.24        2.65508
             Ti 16 -- Ti 31                  0.15        2.65817
              Al 4 -- Ti 39                  0.29        2.66190
              Al 5 -- Ti 24                  0.29        2.66472
             Ti 24 -- V 1                    0.23        2.66769
              Al 1 -- Al 3                   0.34        2.66882
             Ti 6  -- Ti 47                  0.13        2.67126
             Ti 13 -- V 2                    0.09        2.67653
             Ti 31 -- V 2                    0.07        2.68151
             Ti 47 -- V 1                    0.13        2.68744
              Al 2 -- Al 3                   0.33        2.69066
              Al 7 -- Ti 7                   0.31        2.69837
             Ti 31 -- Ti 34                  0.15        2.70205
             Ti 15 -- V 2                    0.18        2.70593
             Ti 11 -- Ti 51                  0.21        2.70619
             Ti 5  -- Ti 17                  0.19        2.70818
[...]
             Ti 3  -- Ti 54                  0.08        2.72281
             Ti 17 -- Ti 32                  0.22        2.72299
             Ti 8  -- V 1                    0.14        2.72504
              Al 1 -- Ti 1                   0.23        2.72607
              Al 7 -- Ti 29                  0.28        2.72644
              Al 4 -- Ti 25                  0.26        2.72729
             Ti 37 -- Ti 38                  0.14        2.72754
             Ti 28 -- Ti 47                  0.12        2.72884
             Ti 15 -- Ti 34                  0.09        2.72936
             Ti 26 -- Ti 27                  0.18        2.73127
             Ti 13 -- Ti 54                  0.16        2.73195
             Ti 26 -- V 2                    0.23        2.73605
              Al 7 -- Ti 8                   0.24        2.73618
             Ti 30 -- V 2                    0.20        2.73756
             Ti 5  -- Ti 42                  0.16        2.73965
              Al 5 -- Ti 41                  0.24        2.74026
             Ti 52 -- Ti 55                  0.14        2.74115
             Ti 14 -- Ti 33                  0.23        2.74205
             Ti 21 -- Ti 40                  0.21        2.74267
             Ti 20 -- Ti 23                  0.18        2.74413
              Al 1 -- Ti 4                   0.28        2.74548
             Ti 25 -- Ti 30                  0.17        2.74613
              Al 7 -- Ti 47                  0.23        2.74893
              Al 1 -- Ti 17                  0.18        2.74935
             Ti 12 -- Ti 48                  0.11        2.74947
              Al 4 -- Ti 12                  0.27        2.75001
             Ti 48 -- Ti 49                  0.13        2.75030
              Al 7 -- Ti 34                  0.28        2.75277
             Ti 22 -- Ti 25                  0.20        2.75279
             Ti 47 -- Ti 50                  0.20        2.75416
             Ti 39 -- Ti 44                  0.17        2.75416
             Ti 48 -- Ti 52                  0.21        2.75510
             Ti 5  -- Ti 22                  0.16        2.75571
             Ti 5  -- Ti 6                   0.17        2.75577
             Ti 32 -- Ti 50                  0.16        2.75621
             Ti 9  -- Ti 49                  0.19        2.75705
              Al 7 -- Ti 45                  0.31        2.75788
              Al 7 -- Ti 51                  0.23        2.75933
              Al 2 -- V 1                    0.31        2.76031
             Ti 17 -- Ti 18                  0.16        2.76056
             Ti 30 -- Ti 41                  0.20        2.76075
             Ti 2  -- Ti 53                  0.25        2.76144
              Al 6 -- Ti 40                  0.31        2.76150
             Ti 12 -- Ti 13                  0.14        2.76215
              Al 5 -- Ti 52                  0.26        2.76301
             Ti 38 -- Ti 52                  0.09        2.76306
             Ti 36 -- Ti 54                  0.11        2.76378
              Al 5 -- Ti 43                  0.20        2.76412
             Ti 7  -- Ti 44                  0.18        2.76614
             Ti 10 -- Ti 26                  0.18        2.76842
             Ti 34 -- Ti 38                  0.24        2.76942
             Ti 42 -- Ti 45                  0.20        2.77055
              Al 4 -- Ti 14                  0.26        2.77143
             Ti 1  -- Ti 12                  0.20        2.77235
             Ti 6  -- Ti 18                  0.19        2.77249
             Ti 36 -- Ti 39                  0.22        2.77382
              Al 1 -- Ti 55                  0.22        2.77384
             Ti 28 -- Ti 29                  0.08        2.77435
             Ti 9  -- Ti 45                  0.17        2.77606
             Ti 5  -- Ti 9                   0.24        2.77619
             Ti 10 -- Ti 23                  0.04        2.77692
             Ti 13 -- Ti 25                  0.11        2.77720
             Ti 37 -- Ti 40                  0.21        2.77722
             Ti 15 -- Ti 29                  0.12        2.77771
             Ti 8  -- Ti 48                  0.14        2.78100
             Ti 30 -- Ti 45                  0.17        2.78230
             Ti 16 -- Ti 20                  0.21        2.78328
              Al 3 -- V 2                    0.25        2.78430
              Al 5 -- Ti 39                  0.26        2.78458
              Al 2 -- Ti 55                  0.26        2.78590
             Ti 29 -- Ti 33                  0.15        2.78653
             Ti 28 -- Ti 32                  0.22        2.78680
             Ti 19 -- Ti 35                  0.25        2.78713
             Ti 15 -- Ti 18                  0.20        2.78772
              Al 6 -- Ti 4                   0.34        2.78798
             Ti 29 -- Ti 44                  0.18        2.78927
             Ti 46 -- Ti 49                  0.21        2.79106
             Ti 30 -- Ti 31                  0.14        2.79389
             Ti 41 -- Ti 55                  0.10        2.79454
             Ti 22 -- Ti 41                  0.16        2.79455
             Ti 42 -- Ti 55                  0.22        2.79469
              Al 6 -- Ti 29                  0.24        2.79505
              Al 3 -- Ti 24                  0.36        2.79528
             Ti 6  -- Ti 43                  0.10        2.79655
              Al 2 -- Ti 26                  0.24        2.79663
             Ti 22 -- Ti 37                  0.14        2.79669
              Al 4 -- Ti 29                  0.18        2.79717
             Ti 51 -- V 1                    0.14        2.79726
              Al 5 -- Ti 35                  0.24        2.79754
             Ti 1  -- Ti 52                  0.13        2.79778
             Ti 7  -- V 1                    0.15        2.80008
             Ti 27 -- Ti 43                  0.19        2.80104
             Ti 42 -- Ti 43                  0.15        2.80130
             Ti 4  -- Ti 21                  0.22        2.80145
             Ti 12 -- Ti 15                  0.08        2.80178
             Ti 27 -- Ti 46                  0.22        2.80185
             Ti 41 -- Ti 42                  0.12        2.80203
             Ti 10 -- Ti 46                  0.21        2.80207
             Ti 9  -- Ti 25                  0.18        2.80260
             Ti 34 -- Ti 48                  0.09        2.80318
             Ti 16 -- Ti 17                  0.22        2.80533
             Ti 3  -- Ti 16                  0.03        2.80679
              Al 4 -- Ti 24                  0.26        2.80729
             Ti 16 -- Ti 36                  0.13        2.80812
             Ti 11 -- Ti 14                  0.22        2.81088
             Ti 1  -- Ti 18                  0.14        2.81092
              Al 2 -- Ti 50                  0.23        2.81148
              Al 1 -- Ti 14                  0.22        2.81202
              Al 2 -- Ti 13                  0.24        2.81506
             Ti 35 -- Ti 53                  0.24        2.81538
              Al 3 -- Ti 27                  0.24        2.81802
             Ti 27 -- Ti 31                  0.14        2.81907
             Ti 6  -- Ti 23                  0.10        2.81913
             Ti 22 -- Ti 23                  0.18        2.81958
             Ti 43 -- Ti 44                  0.14        2.82124
             Ti 2  -- V 2                    0.14        2.82247
              Al 7 -- V 1                    0.21        2.82315
             Ti 31 -- Ti 45                  0.10        2.82381
              Al 1 -- Ti 16                  0.24        2.82656
             Ti 10 -- Ti 50                  0.14        2.82702
              Al 3 -- Ti 32                  0.25        2.82713
              Al 6 -- Ti 55                  0.23        2.83039
             Ti 33 -- Ti 51                  0.24        2.83121
              Al 1 -- Ti 3                   0.25        2.83124
             Ti 51 -- Ti 55                  0.13        2.83224
             Ti 3  -- Ti 7                   0.22        2.83305
             Ti 2  -- Ti 44                  0.17        2.83426
             Ti 2  -- Ti 6                   0.17        2.83581
             Ti 6  -- Ti 7                   0.05        2.83633
             Ti 7  -- Ti 47                  0.14        2.83636
             Ti 43 -- Ti 53                  0.20        2.83716
             Ti 31 -- Ti 49                  0.08        2.83740
              Al 4 -- Ti 8                   0.20        2.83760
             Ti 23 -- Ti 38                  0.16        2.83960
             Ti 8  -- Ti 21                  0.14        2.84091
             Ti 27 -- Ti 30                  0.12        2.84306
             Ti 29 -- Ti 30                  0.18        2.84403
             Ti 37 -- Ti 51                  0.13        2.84552
             Ti 50 -- Ti 51                  0.11        2.84600
             Ti 17 -- Ti 21                  0.17        2.84625
             Ti 10 -- V 1                    0.17        2.84634
             Ti 36 -- Ti 37                  0.13        2.84754
             Ti 35 -- Ti 49                  0.12        2.84782
             Ti 1  -- Ti 14                  0.13        2.84782
             Ti 16 -- Ti 32                  0.11        2.85046
             Ti 1  -- Ti 43                  0.09        2.85051
             Ti 49 -- Ti 50                  0.14        2.85137
             Ti 2  -- Ti 13                  0.09        2.85171
             Ti 37 -- Ti 41                  0.18        2.85175
             Ti 20 -- Ti 35                  0.14        2.85327
             Ti 43 -- Ti 52                  0.21        2.85328
             Ti 8  -- Ti 11                  0.11        2.85419
              Al 1 -- Ti 42                  0.22        2.85442
             Ti 37 -- Ti 55                  0.08        2.85466
             Ti 11 -- Ti 55                  0.16        2.85474
             Ti 10 -- Ti 13                  0.16        2.85477
             Ti 40 -- Ti 54                  0.10        2.85563
             Ti 4  -- Ti 16                  0.13        2.85585
             Ti 32 -- Ti 46                  0.14        2.85620
             Ti 31 -- Ti 32                  0.16        2.85737
             Ti 50 -- Ti 54                  0.10        2.85789
             Ti 44 -- Ti 54                  0.21        2.85867
             Ti 11 -- Ti 12                  0.14        2.85938
             Ti 15 -- Ti 25                  0.11        2.86130
             Ti 2  -- Ti 15                  0.11        2.86232
              Al 5 -- Ti 27                  0.21        2.86418
             Ti 17 -- Ti 22                  0.12        2.86572
             Ti 12 -- Ti 25                  0.16        2.86699
             Ti 20 -- Ti 39                  0.16        2.86856
             Ti 33 -- Ti 47                  0.12        2.86969
              Al 5 -- Ti 38                  0.23        2.86989
             Ti 19 -- V 2                    0.16        2.87098
             Ti 8  -- Ti 9                   0.18        2.87149
             Ti 19 -- Ti 23                  0.20        2.87325
             Ti 41 -- Ti 52                  0.12        2.87551
             Ti 1  -- Ti 11                  0.14        2.87698
             Ti 34 -- Ti 45                  0.17        2.87768
              Al 7 -- Ti 48                  0.23        2.87800
             Ti 6  -- Ti 10                  0.16        2.87846
             Ti 28 -- Ti 39                  0.12        2.87904
             Ti 21 -- Ti 36                  0.13        2.87999
             Ti 4  -- Ti 5                   0.11        2.88082
             Ti 25 -- Ti 40                  0.12        2.88221
             Ti 11 -- Ti 24                  0.17        2.88245
             Ti 6  -- Ti 46                  0.13        2.88300
             Ti 25 -- Ti 26                  0.08        2.88383
             Ti 14 -- Ti 28                  0.16        2.88486
             Ti 18 -- Ti 19                  0.13        2.88610
              Al 4 -- Ti 21                  0.23        2.88653
             Ti 13 -- Ti 49                  0.08        2.88828
              Al 1 -- Ti 11                  0.23        2.88940
             Ti 8  -- Ti 24                  0.03        2.88959
             Ti 26 -- Ti 41                  0.11        2.88997
              Al 1 -- Ti 5                   0.21        2.89020
              Al 3 -- Ti 31                  0.18        2.89068
             Ti 49 -- Ti 53                  0.17        2.89072
              Al 6 -- Ti 42                  0.22        2.89193
             Ti 13 -- Ti 53                  0.12        2.89388
             Ti 19 -- Ti 34                  0.15        2.89395
             Ti 35 -- Ti 48                  0.10        2.89522
              Al 6 -- Ti 3                   0.20        2.89850
             Ti 35 -- Ti 38                  0.11        2.89920
             Ti 9  -- Ti 13                  0.18        2.89994
             Ti 14 -- Ti 17                  0.15        2.90425
             Ti 37 -- Ti 54                  0.23        2.90482
              Al 2 -- Ti 54                  0.15        2.90713
             Ti 11 -- Ti 52                  0.10        2.90817
             Ti 7  -- Ti 19                  0.13        2.91005
              Al 4 -- Ti 28                  0.22        2.91131
             Ti 2  -- Ti 3                   0.11        2.91319
             Ti 12 -- Ti 53                  0.16        2.91381
             Ti 45 -- Ti 48                  0.14        2.91583
             Ti 19 -- Ti 31                  0.09        2.91661
             Ti 21 -- Ti 22                  0.11        2.91816
             Ti 20 -- Ti 24                  0.09        2.91947
             Ti 5  -- Ti 18                  0.10        2.92010
             Ti 1  -- Ti 5                   0.09        2.92196
             Ti 29 -- Ti 40                  0.18        2.92233
             Ti 28 -- Ti 44                  0.11        2.92253
             Ti 39 -- Ti 53                  0.13        2.92272
             Ti 33 -- Ti 34                  0.14        2.92359
             Ti 23 -- Ti 26                  0.15        2.92363
             Ti 24 -- Ti 39                  0.15        2.92394
             Ti 33 -- Ti 37                  0.15        2.92464
             Ti 46 -- Ti 47                  0.15        2.92494
             Ti 20 -- Ti 21                  0.14        2.92692
             Ti 10 -- Ti 22                  0.14        2.92736
             Ti 45 -- Ti 49                  0.16        2.93010
             Ti 4  -- Ti 7                   0.11        2.93058
              Al 3 -- Ti 16                  0.16        2.93142
             Ti 39 -- Ti 40                  0.14        2.93169
             Ti 6  -- Ti 44                  0.17        2.93245
              Al 6 -- Ti 44                  0.18        2.93253
              Al 4 -- Ti 15                  0.21        2.93258
             Ti 43 -- Ti 46                  0.12        2.93280
             Ti 17 -- Ti 33                  0.08        2.93396
             Ti 9  -- Ti 10                  0.13        2.93432
             Ti 15 -- Ti 30                  0.08        2.93468
             Ti 4  -- Ti 8                   0.21        2.93470
             Ti 14 -- Ti 15                  0.14        2.93518
             Ti 38 -- Ti 41                  0.12        2.93742
             Ti 32 -- Ti 33                  0.10        2.94105
              Al 2 -- Ti 11                  0.23        2.94285
             Ti 9  -- Ti 21                  0.16        2.94319
             Ti 18 -- Ti 33                  0.14        2.94384
             Ti 25 -- V 2                    0.15        2.94410
             Ti 35 -- Ti 36                  0.12        2.94566
             Ti 8  -- Ti 12                  0.14        2.94707
             Ti 52 -- Ti 53                  0.11        2.95038
             Ti 4  -- Ti 45                  0.13        2.95190
             Ti 39 -- Ti 43                  0.16        2.95224
             Ti 3  -- Ti 55                  0.17        2.95361
             Ti 20 -- V 1                    0.09        2.95435
             Ti 7  -- Ti 23                  0.01        2.95684
             Ti 40 -- Ti 41                  0.10        2.95710
             Ti 45 -- Ti 46                  0.11        2.95816
             Ti 1  -- Ti 42                  0.09        2.95834
             Ti 27 -- Ti 28                  0.14        2.96075
             Ti 29 -- Ti 34                  0.16        2.96090
              Al 6 -- Ti 30                  0.18        2.96118
             Ti 34 -- Ti 35                  0.14        2.96185
             Ti 31 -- Ti 35                  0.13        2.96205
             Ti 36 -- Ti 50                  0.11        2.96530
              Al 2 -- Ti 51                  0.13        2.96659
             Ti 10 -- Ti 47                  0.10        2.96667
              Al 4 -- Ti 40                  0.15        2.96692
             Ti 32 -- Ti 49                  0.16        2.96776
             Ti 16 -- Ti 19                  0.09        2.96795
             Ti 30 -- Ti 34                  0.06        2.97116
             Ti 27 -- Ti 42                  0.15        2.97213
             Ti 19 -- Ti 20                  0.14        2.97381
             Ti 9  -- Ti 12                  0.11        2.97396
             Ti 1  -- Ti 2                   0.12        2.97522
              Al 5 -- Ti 26                  0.16        2.97557
             Ti 24 -- Ti 26                  0.15        2.97748
             Ti 21 -- Ti 25                  0.15        2.97757
             Ti 1  -- Ti 6                   0.13        2.97810
             Ti 26 -- Ti 30                  0.07        2.97882
             Ti 9  -- Ti 48                  0.09        2.97976
             Ti 48 -- Ti 51                  0.11        2.98043
             Ti 17 -- Ti 36                  0.11        2.98096
             Ti 22 -- Ti 26                  0.16        2.98312
             Ti 5  -- Ti 46                  0.13        2.98341
              Al 5 -- Ti 20                  0.19        2.98419
              Al 2 -- V 2                    0.16        2.98666
              Al 3 -- Ti 3                   0.10        2.98672
             Ti 27 -- Ti 41                  0.15        2.98739
             Ti 18 -- Ti 23                  0.11        2.99097
             Ti 36 -- Ti 40                  0.13        2.99124
             Ti 29 -- Ti 47                  0.13        2.99191
             Ti 51 -- Ti 52                  0.11        2.99261
              Al 6 -- Al 7                   0.17        2.99407
              Al 3 -- Ti 14                  0.19        2.99454
              Al 2 -- Ti 10                  0.13        2.99479
             Ti 44 -- Ti 53                  0.14        2.99618
             Ti 22 -- Ti 38                  0.10        2.99901
             Ti 44 -- Ti 47                  0.06        2.99908
======================================================================


Writing analysis data to sqs_bcc_sc4x4x4_Ti55Al7V2_frame0_00.castep_bin

Writing model to sqs_bcc_sc4x4x4_Ti55Al7V2_frame0_00.check
 
 A BibTeX formatted list of references used in this run has been written to 
 sqs_bcc_sc4x4x4_Ti55Al7V2_frame0_00.bib
 
Initialisation time =     30.50 s
Calculation time    =   4689.54 s
Finalisation time   =     92.10 s
Total time          =   4812.15 s
Peak Memory Use     = 2314768 kB
 
Overall parallel efficiency rating: Mediocre (52%)
 
Data was distributed by:-
G-vector (16-way); efficiency rating: Mediocre (53%)
k-point (18-way); efficiency rating: Excellent (94%)
