 +-------------------------------------------------+
 |                                                 |
 |      CCC   AA    SSS  TTTTT  EEEEE  PPPP        |
 |     C     A  A  S       T    E      P   P       |
 |     C     AAAA   SS     T    EEE    PPPP        |
 |     C     A  A     S    T    E      P           |
 |      CCC  A  A  SSS     T    EEEEE  P           |
 |                                                 |
 +-------------------------------------------------+
 |                                                 |
 | Welcome to Academic Release CASTEP version 24.1 |
 | Ab Initio Total Energy Program                  |
 |                                                 |
 | Authors:                                        |
 | M. Segall, M. Probert, C. Pickard, P. Hasnip,   |
 | S. Clark, K. Refson, J. R. Yates,               |
 | A. Bartok-Partay, M. Payne                      |
 |                                                 |
 | Contributors:                                   |
 | P. Lindan, P. Haynes, J. White, V. Milman,      |
 | N. Govind, M. Gibson, P. Tulip, V. Cocula,      |
 | B. Montanari, D. Quigley, M. Glover,            |
 | L. Bernasconi, A. Perlov, M. Plummer,           |
 | E. McNellis, J. Meyer, J. Gale, D. Jochym       |
 | J. Aarons, B. Walker, R. Gillen, D. Jones       |
 | T. Green, I. J. Bush, C. J. Armstrong,          |
 | E. J. Higgins, E. L. Brown, M. S. McFly,        |
 | J. Wilkins, B-C. Shih, P. J. P. Byrne,          |
 | R. J. Maurer, J. C. Womack, J. Dziedzic,        |
 | L. LeBlanc, T. K. Stenczel, J. Kermode,         |
 | S. Sturniolo, B. Shi, B. Durham, M. Evans,      |
 | M. J. Smith, A. Tamerus, Z. Hawkhead,           |
 | V. Ravindran, T. Hollins, S. A. Joyce,          |
 | R. T. Strong, A. M. Reilly                      |
 |                                                 |
 | Copyright (c) 2000 - 2023                       |
 |                                                 |
 |     Distributed under license from Cambridge    |
 |     Enterprise for academic use only.           |
 |                                                 |
 | Please cite                                     |
 |                                                 |
 |     "First principles methods using CASTEP"     |
 |                                                 |
 |         Zeitschrift fuer Kristallographie       |
 |           220(5-6) pp. 567-570 (2005)           |
 |                                                 |
 | S. J. Clark, M. D. Segall, C. J. Pickard,       |
 | P. J. Hasnip, M. J. Probert, K. Refson,         |
 | M. C. Payne                                     |
 |                                                 |
 |       in all publications arising from          |
 |              your use of CASTEP                 |
 |                                                 |
 +-------------------------------------------------+
 |                                                 |
 |              http://www.castep.org              |
 |                                                 |
 +-------------------------------------------------+



 Compiled for linux_x86_64_gfortran10 on Tue, 02 May 2023 15:31:46 +0100
 from code version db08e394c+  default  Mon May 1 16:40:39 2023 +0100
 Compiler: GNU Fortran 10.2.0; Optimisation: fast
 Comms   : Open MPI v4.0.5
 MATHLIBS: openblas (LAPACK version 3.9.0)
 FFT Lib : fftw3 version fftw-3.3.8-sse2-avx-avx2-avx2_128
 Fundamental constants values: CODATA 2018

 Run started: Wed, 07 Feb 2024 17:10:14 +0000
 Info: number of up-spin electrons is not equal to the
       number of down-spins but spin_polarized=false
     - consider setting spin_polarized=true.

 Atomic calculation performed for Al: 1s2 2s2 2p6 3s2 3p1

 Converged in 54 iterations to an ae energy of -6603.783 eV

   ============================================================                
   | Pseudopotential Report - Date of generation  7-02-2024   |                
   ------------------------------------------------------------                
   | Element: Al Ionic charge:  3.00 Level of theory: PBE     |                
   | Atomic Solver: Koelling-Harmon                           |                
   |                                                          |                
   |               Reference Electronic Structure             |                
   |         Orbital         Occupation         Energy        |                
   |            3s              2.000           -0.285        |                
   |            3p              1.000           -0.100        |                
   |                                                          |                
   |                 Pseudopotential Definition               |                
   |        Beta     l      e      Rc     scheme   norm       |                
   |          1      0   -0.285   2.192     qc      0         |                
   |          2      0    0.250   2.192     qc      0         |                
   |          3      1   -0.100   2.192     qc      0         |                
   |          4      1    0.250   2.192     qc      0         |                
   |          5      2    0.000   2.000     qc      0         |                
   |          6      2    0.250   2.000     qc      0         |                
   |         loc     3    0.000   2.192     pn      0         |                
   |                                                          |                
   | Augmentation charge Rinner = 1.398                       |                
   | Partial core correction Rc = 1.398                       |                
   ------------------------------------------------------------                
   | "3|2.2|2.2|1.4|4|5|5|30:31:32U2U2"                       |                
   ------------------------------------------------------------                
   |      Author: Chris J. Pickard, Cambridge University      |                
   ============================================================                

 Atomic calculation performed for Ti: 1s2 2s2 2p6 3s2 3p6 3d2 4s2

 Converged in 79 iterations to an ae energy of -23226.658 eV

   ============================================================                
   | Pseudopotential Report - Date of generation  7-02-2024   |                
   ------------------------------------------------------------                
   | Element: Ti Ionic charge: 12.00 Level of theory: PBE     |                
   | Atomic Solver: Koelling-Harmon                           |                
   |                                                          |                
   |               Reference Electronic Structure             |                
   |         Orbital         Occupation         Energy        |                
   |            3s              2.000           -2.302        |                
   |            3p              6.000           -1.428        |                
   |            4s              2.000           -0.164        |                
   |            3d              2.000           -0.157        |                
   |                                                          |                
   |                 Pseudopotential Definition               |                
   |        Beta     l      e      Rc     scheme   norm       |                
   |          1      0   -2.302   1.793     qc      0         |                
   |          2      0   -0.164   1.793     qc      0         |                
   |          3      0    0.250   1.793     qc      0         |                
   |          4      1   -1.428   1.793     qc      0         |                
   |          5      1    0.250   1.793     qc      0         |                
   |          6      2   -0.157   1.793     qc      0         |                
   |          7      2    0.250   1.793     qc      0         |                
   |         loc     3    0.000   1.793     pn      0         |                
   |                                                          |                
   | Augmentation charge Rinner = 1.263                       |                
   | Partial core correction Rc = 1.263                       |                
   ------------------------------------------------------------                
   | "3|1.8|9|10|11|30U:40:31:32(qc=5.5)"                     |                
   ------------------------------------------------------------                
   |      Author: Chris J. Pickard, Cambridge University      |                
   ============================================================                

 Atomic calculation performed for V: 1s2 2s2 2p6 3s2 3p6 3d3 4s2

 Converged in 81 iterations to an ae energy of -25823.733 eV

   ============================================================                
   | Pseudopotential Report - Date of generation  7-02-2024   |                
   ------------------------------------------------------------                
   | Element: V Ionic charge: 13.00 Level of theory: PBE      |                
   | Atomic Solver: Koelling-Harmon                           |                
   |                                                          |                
   |               Reference Electronic Structure             |                
   |         Orbital         Occupation         Energy        |                
   |            3s              2.000           -2.581        |                
   |            3p              6.000           -1.618        |                
   |            3d              3.000           -0.190        |                
   |            4s              2.000           -0.173        |                
   |                                                          |                
   |                 Pseudopotential Definition               |                
   |        Beta     l      e      Rc     scheme   norm       |                
   |          1      0   -2.581   1.803     qc      0         |                
   |          2      0   -0.173   1.803     qc      0         |                
   |          3      0    0.250   1.803     qc      0         |                
   |          4      1   -1.618   1.803     qc      0         |                
   |          5      1    0.250   1.803     qc      0         |                
   |          6      2   -0.190   1.803     qc      0         |                
   |          7      2    0.250   1.803     qc      0         |                
   |         loc     3    0.000   1.803     pn      0         |                
   |                                                          |                
   | Augmentation charge Rinner = 0.600                       |                
   | Partial core correction Rc = 0.600                       |                
   ------------------------------------------------------------                
   | "3|1.8|1.8|0.6|12|14|16|30U:40:31:32(qc=7)"              |                
   ------------------------------------------------------------                
   |      Author: Chris J. Pickard, Cambridge University      |                
   ============================================================                

 Pseudo atomic calculation performed for Al 3s2 3p1

 Converged in 15 iterations to a total energy of -107.1308 eV

 Pseudo atomic calculation performed for Ti 3s2 3p6 3d2 4s2

 Converged in 34 iterations to a total energy of -1587.0236 eV

 Pseudo atomic calculation performed for V 3s2 3p6 3d3 4s2

 Converged in 35 iterations to a total energy of -2065.7874 eV
 Calculation parallelised over 240 processes.
 Data is distributed by G-vector(16-way) and k-point(15-way)

 ************************************ Title ************************************
 

 ***************************** General Parameters ******************************
  
 output verbosity                               : normal  (1)
 write checkpoint data to                       : sqs_hex_sc3x3x3_Ti70Al8V3_frame0_03.check
 type of calculation                            : single point energy
 stress calculation                             : on
 density difference calculation                 : off
 electron localisation func (ELF) calculation   : off
 Hirshfeld analysis                             : off
 polarisation (Berry phase) analysis            : off
 molecular orbital projected DOS                : off
 deltaSCF calculation                           : off
 unlimited duration calculation
 timing information                             : on
 memory usage estimate                          : on
 write extra output files                       : on
 write final potential to formatted file        : off
 write final density to formatted file          : off
 write BibTeX reference list                    : on
 write OTFG pseudopotential files               : on
 write electrostatic potential file             : on
 write bands file                               : on
 checkpoint writing                             : off
  
 output         length unit                     : A
 output           mass unit                     : amu
 output           time unit                     : ps
 output         charge unit                     : e
 output           spin unit                     : hbar/2
 output         energy unit                     : eV
 output          force unit                     : eV/A
 output       velocity unit                     : A/ps
 output       pressure unit                     : GPa
 output     inv_length unit                     : 1/A
 output      frequency unit                     : cm-1
 output force constant unit                     : eV/A**2
 output         volume unit                     : A**3
 output   IR intensity unit                     : (D/A)**2/amu
 output         dipole unit                     : D
 output         efield unit                     : eV/A/e
 output        entropy unit                     : J/mol/K
 output    efield chi2 unit                     : pm/V
  
 wavefunctions paging                           : none
 random number generator seed                   :  171014951
 data distribution                              : k-point only
 optimization strategy                          : maximize speed(+++)

 *********************** Exchange-Correlation Parameters ***********************
  
 using functional                               : Perdew Burke Ernzerhof
 relativistic treatment                         : Koelling-Harmon
 DFT+D: Semi-empirical dispersion correction    : off

 ************************* Pseudopotential Parameters **************************
  
 pseudopotential representation                 : reciprocal space
 <beta|phi> representation                      : reciprocal space
 spin-orbit coupling                            : off

 **************************** Basis Set Parameters *****************************
  
 plane wave basis set cut-off                   :   800.0000   eV
 size of standard grid                          :     2.0000
 size of   fine   gmax                          :    28.9810   1/A
 largest prime factor in FFT                    :          5
 finite basis set correction                    : automatic
 number of sample energies                      :          3
           sample  spacing                      :     5.0000   eV

 **************************** Electronic Parameters ****************************
  
 number of  electrons                           :  903.0    
 net charge of system                           :  0.000    
 treating system as non-spin-polarized
 number of bands                                :        487

 ********************* Electronic Minimization Parameters **********************
  
 Method: Treating system as metallic with density mixing treatment of electrons,
         and number of  SD  steps               :          1
         and number of  CG  steps               :          4
  
 total energy / atom convergence tol.           : 0.1000E-05   eV
 eigen-energy convergence tolerance             : 0.1663E-06   eV
 max force / atom convergence tol.              : ignored
 convergence tolerance window                   :          3   cycles
 max. number of SCF cycles                      :         30
 number of fixed-spin iterations                :         10
 smearing scheme                                : Gaussian
 smearing width                                 : 0.5000E-01   eV
 Fermi energy convergence tolerance             : 0.2721E-13   eV
 periodic dipole correction                     : NONE

 ************************** Density Mixing Parameters **************************
  
 density-mixing scheme                          : Pulay
 max. length of mixing history                  :         20
 charge density mixing amplitude                : 0.8000    
 cut-off energy for mixing                      :  800.0       eV
 charge density mixing g-vector                 :  1.500       1/A

 *********************** Population Analysis Parameters ************************
  
 Population analysis with cutoff                :  3.000       A
 Population analysis output                     : summary and pdos components

 ******************************* Developer Code ********************************
  
 PARALLEL: kpoint=15 : ENDPARALLEL
 no_improve_wvfn

 *******************************************************************************
  

                           -------------------------------
                                      Unit Cell
                           -------------------------------
        Real Lattice(A)                      Reciprocal Lattice(1/A)
     6.8351780   -11.8388760     0.0000600        0.459621191  -0.265362409   0.000002159
     6.8351780    11.8388760    -0.0000200        0.459621191   0.265362409   0.000000421
    -0.0000240     0.0000280     8.5493020       -0.000002150   0.000002483   0.734935473

                       Lattice parameters(A)       Cell Angles
                    a =     13.670356          alpha =   90.000002
                    b =     13.670356          beta  =   89.999991
                    c =      8.549302          gamma =  120.000002

                       Current cell volume =          1383.633138       A**3
                                   density =             2.688116   AMU/A**3
                                           =             4.463722     g/cm^3

                           -------------------------------
                                     Cell Contents
                           -------------------------------
                         Total number of ions in cell =   81
                      Total number of species in cell =    3
                        Max number of any one species =   70

            xxxxxxxxxxxxxxxxxxxxxxxxxxxxxxxxxxxxxxxxxxxxxxxxxxxxxxxxxxxx
            x  Element    Atom        Fractional coordinates of atoms  x
            x            Number           u          v          w      x
            x----------------------------------------------------------x
            x  Al           1        -0.000247  -0.001326   0.330733   x 
            x  Al           2         0.561171   0.117172   0.794242   x 
            x  Al           3         0.552346   0.444073   0.652557   x 
            x  Al           4         0.560953   0.442024   0.973541   x 
            x  Al           5         0.336101   0.664673  -0.004848   x 
            x  Al           6         0.557634   0.777502   0.155799   x 
            x  Al           7         0.450688   0.900541   0.839547   x 
            x  Al           8         0.779252   0.889231   0.832163   x 
            x  Ti           1        -0.001779  -0.002587  -0.003597   x 
            x  Ti           2         0.108549   0.219909   0.163498   x 
            x  Ti           3         0.222498   0.110493   0.162162   x 
            x  Ti           4         0.106828   0.220019   0.497345   x 
            x  Ti           5         0.221687   0.110436   0.495743   x 
            x  Ti           6        -0.001662  -0.002396   0.665211   x 
            x  Ti           7         0.108640   0.218419   0.830768   x 
            x  Ti           8         0.224869   0.111682   0.829381   x 
            x  Ti           9         0.003632   0.336991  -0.002433   x 
            x  Ti          10         0.115427   0.556488   0.162964   x 
            x  Ti          11         0.225239   0.444777   0.164822   x 
            x  Ti          12         0.002551   0.334690   0.332524   x 
            x  Ti          13         0.112660   0.557161   0.495839   x 
            x  Ti          14         0.223460   0.446833   0.499970   x 
            x  Ti          15        -0.000455   0.335350   0.666586   x 
            x  Ti          16         0.109243   0.556232   0.829239   x 
            x  Ti          17         0.221769   0.444388   0.831850   x 
            x  Ti          18         0.000365   0.665542  -0.004249   x 
            x  Ti          19         0.112536   0.889715   0.162442   x 
            x  Ti          20         0.217888   0.775277   0.164047   x 
            x  Ti          21        -0.005464   0.664090   0.328735   x 
            x  Ti          22         0.113142   0.888943   0.494455   x 
            x  Ti          23         0.221125   0.776339   0.492681   x 
            x  Ti          24        -0.004545   0.664505   0.663284   x 
            x  Ti          25         0.109696   0.888687   0.827867   x 
            x  Ti          26         0.224622   0.779543   0.828082   x 
            x  Ti          27         0.333992   0.000309  -0.006320   x 
            x  Ti          28         0.451283   0.234852   0.159903   x 
            x  Ti          29         0.556528   0.110575   0.142310   x 
            x  Ti          30         0.336418   0.005066   0.326601   x 
            x  Ti          31         0.452068   0.236456   0.487518   x 
            x  Ti          32         0.334858   0.002202   0.659143   x 
            x  Ti          33         0.451035   0.232520   0.825347   x 
            x  Ti          34         0.325672   0.330257  -0.001417   x 
            x  Ti          35         0.451406   0.548786   0.155394   x 
            x  Ti          36         0.558241   0.447419   0.310247   x 
            x  Ti          37         0.320581   0.326511   0.328374   x 
            x  Ti          38         0.449629   0.546337   0.489433   x 
            x  Ti          39         0.321492   0.327665   0.659526   x 
            x  Ti          40         0.449650   0.548696   0.821232   x 
            x  Ti          41         0.439522   0.885989   0.165315   x 
            x  Ti          42         0.335897   0.666633   0.329957   x 
            x  Ti          43         0.446670   0.896220   0.507807   x 
            x  Ti          44         0.552530   0.775180   0.482160   x 
            x  Ti          45         0.337370   0.669584   0.661591   x 
            x  Ti          46         0.554897   0.777830   0.828963   x 
            x  Ti          47         0.667139  -0.002828  -0.004772   x 
            x  Ti          48         0.780331   0.221598   0.168313   x 
            x  Ti          49         0.888455   0.112281   0.165778   x 
            x  Ti          50         0.662668  -0.004470   0.329432   x 
            x  Ti          51         0.770173   0.217601   0.500950   x 
            x  Ti          52         0.886936   0.114703   0.494753   x 
            x  Ti          53         0.667112  -0.005315   0.663059   x 
            x  Ti          54         0.782897   0.225112   0.839423   x 
            x  Ti          55         0.889225   0.112704   0.830038   x 
            x  Ti          56         0.769794   0.544721   0.135186   x 
            x  Ti          57         0.892755   0.443330   0.164231   x 
            x  Ti          58         0.671932   0.327119   0.321028   x 
            x  Ti          59         0.762578   0.547571   0.485135   x 
            x  Ti          60         0.888702   0.444169   0.500467   x 
            x  Ti          61         0.669707   0.333575   0.663686   x 
            x  Ti          62         0.877221   0.448702   0.837333   x 
            x  Ti          63         0.671184   0.674149  -0.005626   x 
            x  Ti          64         0.782764   0.892879   0.161762   x 
            x  Ti          65         0.888461   0.774609   0.169204   x 
            x  Ti          66         0.675867   0.682590   0.325152   x 
            x  Ti          67         0.781058   0.892616   0.504270   x 
            x  Ti          68         0.889891   0.775228   0.499151   x 
            x  Ti          69         0.670677   0.675987   0.657990   x 
            x  Ti          70         0.885427   0.769594   0.834433   x 
            x  V            1         0.552039   0.117615   0.474329   x 
            x  V            2         0.663753   0.316479  -0.004301   x 
            x  V            3         0.761099   0.553177   0.803565   x 
            xxxxxxxxxxxxxxxxxxxxxxxxxxxxxxxxxxxxxxxxxxxxxxxxxxxxxxxxxxxx


                         No user defined ionic velocities

                           -------------------------------
                                   Details of Species
                           -------------------------------

                               Mass of species in AMU
                                    Al   26.9815400
                                    Ti   47.8670000
                                    V   50.9415000

                          Electric Quadrupole Moment (Barn)
                                    Al    0.1466000 Isotope 27
                                    Ti    0.3020000 Isotope 47
                                    V   -0.0520000 Isotope 51

                          Files used for pseudopotentials:
                                    Al 3|2.2|2.2|1.4|4|5|5|30:31:32U2U2
                                    Ti 3|1.8|9|10|11|30U:40:31:32(qc=5.5)
                                    V 3|1.8|1.8|0.6|12|14|16|30U:40:31:32(qc=7)

                           -------------------------------
                              k-Points For BZ Sampling
                           -------------------------------
                       MP grid size for SCF calculation is  5  5  6
                            with an offset of   0.000  0.000  0.000
                       Number of kpoints used =            75

                           -------------------------------
                               Symmetry and Constraints
                           -------------------------------

                      Maximum deviation from symmetry =  0.00000         ANG

                      Number of symmetry operations   =           1
                      Number of ionic constraints     =           3
                      Point group of crystal =     1: C1, 1, 1
                      Space group of crystal =     1: P1, P 1

             Set iprint > 1 for details on symmetry rotations/translations

                         Centre of mass is constrained
             Set iprint > 1 for details of linear ionic constraints

                         Number of cell constraints= 0
                         Cell constraints are:  1 2 3 4 5 6

                         External pressure/stress (GPa)
                          0.00000   0.00000   0.00000
                                    0.00000   0.00000
                                              0.00000
 
+---------------- MEMORY AND SCRATCH DISK ESTIMATES PER PROCESS --------------+
|                                                     Memory          Disk    |
| Baseline code, static data and system overhead      591.0 MB         0.0 MB |
| BLAS internal memory storage                          0.0 MB         0.0 MB |
| Model and support data                              928.9 MB         0.0 MB |
| Electronic energy minimisation requirements         444.7 MB         0.0 MB |
| Force calculation requirements                       15.9 MB         0.0 MB |
| Stress calculation requirements                      17.2 MB         0.0 MB |
|                                               ----------------------------- |
| Approx. total storage required per process         1964.5 MB         0.0 MB |
|                                                                             |
| Requirements will fluctuate during execution and may exceed these estimates |
+-----------------------------------------------------------------------------+
Calculating finite basis set correction with  3 cut-off energies.
Calculating total energy with cut-off of  790.000 eV.
------------------------------------------------------------------------ <-- SCF
SCF loop      Energy           Fermi           Energy gain       Timer   <-- SCF
                               energy          per atom          (sec)   <-- SCF
------------------------------------------------------------------------ <-- SCF
Initial  -1.06803586E+005  0.00000000E+000                        34.47  <-- SCF
      1  -1.15681064E+005  1.17069189E+001   1.09598492E+002     228.69  <-- SCF
      2  -1.18524425E+005  9.10769494E+000   3.51032217E+001     386.64  <-- SCF
      3  -1.18686402E+005  8.89373518E+000   1.99971443E+000     551.67  <-- SCF
      4  -1.18710391E+005  8.05537857E+000   2.96167902E-001     747.43  <-- SCF
      5  -1.18695096E+005  8.28065886E+000  -1.88833904E-001     947.04  <-- SCF
      6  -1.18687933E+005  8.45070622E+000  -8.84335921E-002    1138.47  <-- SCF
      7  -1.18682936E+005  8.47123371E+000  -6.16906498E-002    1338.43  <-- SCF
      8  -1.18684172E+005  8.41796161E+000   1.52609149E-002    1532.69  <-- SCF
      9  -1.18682837E+005  8.41693126E+000  -1.64767680E-002    1714.59  <-- SCF
     10  -1.18682594E+005  8.40029549E+000  -3.00160885E-003    1903.54  <-- SCF
     11  -1.18682679E+005  8.39506872E+000   1.04763865E-003    2094.11  <-- SCF
     12  -1.18682596E+005  8.39169665E+000  -1.02215676E-003    2270.77  <-- SCF
     13  -1.18682578E+005  8.39238506E+000  -2.27791039E-004    2456.77  <-- SCF
     14  -1.18682578E+005  8.39276299E+000   6.35443487E-006    2638.73  <-- SCF
     15  -1.18682576E+005  8.39275780E+000  -2.84189052E-005    2796.34  <-- SCF
     16  -1.18682576E+005  8.39276976E+000   3.40521677E-006    2951.58  <-- SCF
     17  -1.18682576E+005  8.39289536E+000  -3.41957647E-006    3091.05  <-- SCF
     18  -1.18682576E+005  8.39289877E+000   1.30745998E-008    3200.37  <-- SCF
     19  -1.18682576E+005  8.39289124E+000  -5.09167547E-008    3308.42  <-- SCF
------------------------------------------------------------------------ <-- SCF
 
Final energy, E             =  -118682.4656076     eV
Final free energy (E-TS)    =  -118682.5759954     eV
(energies not corrected for finite basis set)
 
NB est. 0K energy (E-0.5TS)      =  -118682.5208015     eV
 
Calculating total energy with cut-off of  795.000 eV.
------------------------------------------------------------------------ <-- SCF
SCF loop      Energy           Fermi           Energy gain       Timer   <-- SCF
                               energy          per atom          (sec)   <-- SCF
------------------------------------------------------------------------ <-- SCF
Initial  -1.18682466E+005  0.00000000E+000                      3339.44  <-- SCF
      1  -1.18682579E+005  8.39297852E+000   1.39437567E-003    3483.66  <-- SCF
      2  -1.18682579E+005  8.39297701E+000   3.53649318E-006    3632.87  <-- SCF
      3  -1.18682616E+005  8.39147129E+000   4.62823410E-004    3816.23  <-- SCF
      4  -1.18682578E+005  8.39352661E+000  -4.68593817E-004    3994.27  <-- SCF
      5  -1.18682577E+005  8.39290821E+000  -1.35086923E-005    4159.91  <-- SCF
      6  -1.18682577E+005  8.39291464E+000   3.13674353E-006    4306.23  <-- SCF
      7  -1.18682577E+005  8.39288191E+000  -5.29994573E-007    4422.40  <-- SCF
      8  -1.18682577E+005  8.39285524E+000  -2.51432450E-007    4529.89  <-- SCF
------------------------------------------------------------------------ <-- SCF
 
Final energy, E             =  -118682.4670451     eV
Final free energy (E-TS)    =  -118682.5774203     eV
(energies not corrected for finite basis set)
 
NB est. 0K energy (E-0.5TS)      =  -118682.5222327     eV
 
Calculating total energy with cut-off of  800.000 eV.
------------------------------------------------------------------------ <-- SCF
SCF loop      Energy           Fermi           Energy gain       Timer   <-- SCF
                               energy          per atom          (sec)   <-- SCF
------------------------------------------------------------------------ <-- SCF
Initial  -1.18682467E+005  0.00000000E+000                      4560.68  <-- SCF
      1  -1.18682588E+005  8.39292098E+000   1.50152780E-003    4733.76  <-- SCF
      2  -1.18682589E+005  8.39291721E+000   3.44653840E-006    4879.81  <-- SCF
      3  -1.18682836E+005  8.38990855E+000   3.04915894E-003    5067.64  <-- SCF
      4  -1.18682584E+005  8.39567200E+000  -3.11104245E-003    5249.82  <-- SCF
      5  -1.18682578E+005  8.39305363E+000  -7.05348367E-005    5418.78  <-- SCF
      6  -1.18682579E+005  8.39293625E+000   1.72294459E-005    5588.00  <-- SCF
      7  -1.18682579E+005  8.39284570E+000  -3.79165534E-006    5740.68  <-- SCF
      8  -1.18682579E+005  8.39278691E+000  -3.10992856E-006    5874.72  <-- SCF
      9  -1.18682579E+005  8.39283271E+000  -1.15696398E-007    5984.55  <-- SCF
     10  -1.18682579E+005  8.39286591E+000  -1.50166020E-007    6092.39  <-- SCF
------------------------------------------------------------------------ <-- SCF
 
Final energy, E             =  -118682.4684063     eV
Final free energy (E-TS)    =  -118682.5787862     eV
(energies not corrected for finite basis set)
 
NB est. 0K energy (E-0.5TS)      =  -118682.5235962     eV
 
 For future reference: finite basis dEtot/dlog(Ecut) =      -0.222699eV
 Total energy corrected for finite basis set = -118682.578788 eV

 ************************** Forces **************************
 *                                                          *
 *               Cartesian components (eV/A)                *
 * -------------------------------------------------------- *
 *                         x            y            z      *
 *                                                          *
 * Al              1      0.02443      0.03031      0.01035 *
 * Al              2     -0.20719     -0.05360      0.04641 *
 * Al              3      0.09619     -0.00714     -0.00282 *
 * Al              4      0.02286      0.05408     -0.00705 *
 * Al              5     -0.04518      0.01273     -0.04761 *
 * Al              6     -0.05817      0.05332     -0.02624 *
 * Al              7     -0.12185     -0.14253      0.15454 *
 * Al              8     -0.00630      0.04437      0.04013 *
 * Ti              1      0.03450     -0.06441      0.07100 *
 * Ti              2     -0.12226      0.03204      0.02919 *
 * Ti              3      0.05503     -0.05154     -0.00926 *
 * Ti              4     -0.08619      0.01666     -0.03390 *
 * Ti              5     -0.00647      0.01700     -0.05257 *
 * Ti              6      0.04253     -0.01034     -0.08069 *
 * Ti              7     -0.03134      0.08648      0.00102 *
 * Ti              8      0.07904     -0.02978      0.00462 *
 * Ti              9      0.02475     -0.04293     -0.04116 *
 * Ti             10      0.00289      0.04394      0.01562 *
 * Ti             11      0.07771     -0.05142     -0.04000 *
 * Ti             12     -0.05268      0.03095     -0.00645 *
 * Ti             13     -0.02600      0.02366      0.00589 *
 * Ti             14      0.05588     -0.02543     -0.06349 *
 * Ti             15     -0.00176     -0.02208      0.03617 *
 * Ti             16      0.06523      0.00720      0.01189 *
 * Ti             17      0.05047      0.03483     -0.06371 *
 * Ti             18     -0.09975      0.02489     -0.09597 *
 * Ti             19     -0.07898      0.04015      0.04237 *
 * Ti             20      0.11693     -0.02732      0.01977 *
 * Ti             21      0.04334     -0.03979     -0.01197 *
 * Ti             22     -0.01306      0.03353     -0.01777 *
 * Ti             23      0.03049      0.01922     -0.03016 *
 * Ti             24      0.00507     -0.01112      0.09114 *
 * Ti             25      0.00342     -0.10759     -0.02080 *
 * Ti             26     -0.03598     -0.06135      0.02815 *
 * Ti             27     -0.05977      0.05638      0.05449 *
 * Ti             28      0.07615     -0.04922      0.01142 *
 * Ti             29      0.02671      0.05694      0.09198 *
 * Ti             30     -0.01343      0.05366     -0.03779 *
 * Ti             31     -0.07621     -0.06375     -0.12975 *
 * Ti             32      0.02054     -0.03698      0.04821 *
 * Ti             33     -0.01900     -0.13922     -0.00065 *
 * Ti             34     -0.04411      0.05465     -0.08186 *
 * Ti             35     -0.00178      0.05060      0.12615 *
 * Ti             36     -0.11826      0.01429      0.20354 *
 * Ti             37      0.04057     -0.01025     -0.07791 *
 * Ti             38      0.06316      0.06080     -0.02338 *
 * Ti             39      0.02122     -0.02267      0.10518 *
 * Ti             40     -0.04296      0.04046     -0.02181 *
 * Ti             41      0.03116     -0.01771      0.00650 *
 * Ti             42      0.01130      0.04081     -0.12545 *
 * Ti             43     -0.01800     -0.08586      0.02955 *
 * Ti             44      0.08290      0.05159     -0.06277 *
 * Ti             45      0.04622      0.05863      0.04970 *
 * Ti             46     -0.03342     -0.05561     -0.03133 *
 * Ti             47      0.00385      0.06384      0.01895 *
 * Ti             48      0.05975      0.00350     -0.05388 *
 * Ti             49     -0.04313     -0.01407     -0.00632 *
 * Ti             50      0.05444      0.03571     -0.06060 *
 * Ti             51      0.02602     -0.14179     -0.05274 *
 * Ti             52     -0.02040     -0.03906     -0.05001 *
 * Ti             53     -0.04084     -0.02306      0.02251 *
 * Ti             54     -0.03116     -0.02798      0.09253 *
 * Ti             55      0.06925      0.14280      0.02669 *
 * Ti             56      0.11478      0.02767      0.26418 *
 * Ti             57     -0.04618      0.05987     -0.10154 *
 * Ti             58      0.02241      0.14919      0.07865 *
 * Ti             59      0.08230     -0.08928     -0.07263 *
 * Ti             60     -0.01955      0.02305     -0.05743 *
 * Ti             61     -0.11829      0.01462     -0.02601 *
 * Ti             62     -0.03168      0.01917      0.01032 *
 * Ti             63     -0.05274      0.00776     -0.02516 *
 * Ti             64      0.01666     -0.00299      0.01784 *
 * Ti             65     -0.01491      0.02299     -0.05871 *
 * Ti             66     -0.10923     -0.02002     -0.07306 *
 * Ti             67      0.04526      0.00465     -0.00191 *
 * Ti             68     -0.03940      0.01365     -0.14367 *
 * Ti             69     -0.04553     -0.03305      0.02994 *
 * Ti             70     -0.00268     -0.05559     -0.10542 *
 * V               1     -0.06027      0.02733      0.00755 *
 * V               2      0.10248      0.09699      0.07571 *
 * V               3      0.24814     -0.18041      0.15357 *
 *                                                          *
 ************************************************************

 ***************** Stress Tensor *****************
 *                                               *
 *          Cartesian components (GPa)           *
 * --------------------------------------------- *
 *             x             y             z     *
 *                                               *
 *  x      0.520023      0.028834     -0.227383  *
 *  y      0.028834      0.591886      0.262394  *
 *  z     -0.227383      0.262394      2.235529  *
 *                                               *
 *  Pressure:   -1.1158                          *
 *                                               *
 *************************************************

 Pseudo atomic calculation performed for Al 3s2 3p1

 Converged in 15 iterations to a total energy of -107.1308 eV

 Pseudo atomic calculation performed for Ti 3s2 3p6 3d2 4s2

 Converged in 34 iterations to a total energy of -1587.0236 eV

 Pseudo atomic calculation performed for V 3s2 3p6 3d3 4s2

 Converged in 35 iterations to a total energy of -2065.7874 eV
Charge spilling parameter for spin component 1 = 0.08%

            Orbital Populations       
     Ion    Atom   Orbital             Charge
  -------------------------------------------
     Al     1      S                    0.918
     Al     1      Px                   0.678
     Al     1      Py                   0.663
     Al     1      Pz                   0.670
     Al     2      S                    0.962
     Al     2      Px                   0.698
     Al     2      Py                   0.723
     Al     2      Pz                   0.669
     Al     3      S                    0.965
     Al     3      Px                   0.738
     Al     3      Py                   0.746
     Al     3      Pz                   0.631
     Al     4      S                    0.968
     Al     4      Px                   0.738
     Al     4      Py                   0.722
     Al     4      Pz                   0.635
     Al     5      S                    0.943
     Al     5      Px                   0.632
     Al     5      Py                   0.659
     Al     5      Pz                   0.690
     Al     6      S                    0.974
     Al     6      Px                   0.695
     Al     6      Py                   0.718
     Al     6      Pz                   0.671
     Al     7      S                    0.978
     Al     7      Px                   0.670
     Al     7      Py                   0.717
     Al     7      Pz                   0.688
     Al     8      S                    0.954
     Al     8      Px                   0.724
     Al     8      Py                   0.709
     Al     8      Pz                   0.663
     Ti     1      S                    2.000
     Ti     1      Px                   2.003
     Ti     1      Py                   2.003
     Ti     1      Pz                   2.004
     Ti     1      S                    0.318
     Ti     1      Dzz                  0.478
     Ti     1      Dzy                  0.618
     Ti     1      Dzx                  0.633
     Ti     1      Dxx-yy               0.452
     Ti     1      Dxy                  0.447
     Ti     1      Px                   0.336
     Ti     1      Py                   0.351
     Ti     1      Pz                   0.308
     Ti     2      S                    2.004
     Ti     2      Px                   2.007
     Ti     2      Py                   2.007
     Ti     2      Pz                   2.006
     Ti     2      S                    0.277
     Ti     2      Dzz                  0.590
     Ti     2      Dzy                  0.508
     Ti     2      Dzx                  0.502
     Ti     2      Dxx-yy               0.600
     Ti     2      Dxy                  0.596
     Ti     2      Px                   0.293
     Ti     2      Py                   0.303
     Ti     2      Pz                   0.336
     Ti     3      S                    2.004
     Ti     3      Px                   2.006
     Ti     3      Py                   2.007
     Ti     3      Pz                   2.006
     Ti     3      S                    0.283
     Ti     3      Dzz                  0.596
     Ti     3      Dzy                  0.498
     Ti     3      Dzx                  0.490
     Ti     3      Dxx-yy               0.605
     Ti     3      Dxy                  0.600
     Ti     3      Px                   0.300
     Ti     3      Py                   0.315
     Ti     3      Pz                   0.328
     Ti     4      S                    2.004
     Ti     4      Px                   2.007
     Ti     4      Py                   2.007
     Ti     4      Pz                   2.006
     Ti     4      S                    0.270
     Ti     4      Dzz                  0.595
     Ti     4      Dzy                  0.504
     Ti     4      Dzx                  0.495
     Ti     4      Dxx-yy               0.598
     Ti     4      Dxy                  0.603
     Ti     4      Px                   0.292
     Ti     4      Py                   0.305
     Ti     4      Pz                   0.328
     Ti     5      S                    2.004
     Ti     5      Px                   2.006
     Ti     5      Py                   2.007
     Ti     5      Pz                   2.006
     Ti     5      S                    0.284
     Ti     5      Dzz                  0.597
     Ti     5      Dzy                  0.494
     Ti     5      Dzx                  0.489
     Ti     5      Dxx-yy               0.606
     Ti     5      Dxy                  0.601
     Ti     5      Px                   0.303
     Ti     5      Py                   0.315
     Ti     5      Pz                   0.327
     Ti     6      S                    2.000
     Ti     6      Px                   2.003
     Ti     6      Py                   2.002
     Ti     6      Pz                   2.004
     Ti     6      S                    0.316
     Ti     6      Dzz                  0.474
     Ti     6      Dzy                  0.622
     Ti     6      Dzx                  0.645
     Ti     6      Dxx-yy               0.450
     Ti     6      Dxy                  0.438
     Ti     6      Px                   0.330
     Ti     6      Py                   0.347
     Ti     6      Pz                   0.308
     Ti     7      S                    2.004
     Ti     7      Px                   2.007
     Ti     7      Py                   2.007
     Ti     7      Pz                   2.006
     Ti     7      S                    0.266
     Ti     7      Dzz                  0.577
     Ti     7      Dzy                  0.499
     Ti     7      Dzx                  0.503
     Ti     7      Dxx-yy               0.601
     Ti     7      Dxy                  0.608
     Ti     7      Px                   0.313
     Ti     7      Py                   0.318
     Ti     7      Pz                   0.344
     Ti     8      S                    2.004
     Ti     8      Px                   2.006
     Ti     8      Py                   2.006
     Ti     8      Pz                   2.006
     Ti     8      S                    0.272
     Ti     8      Dzz                  0.589
     Ti     8      Dzy                  0.500
     Ti     8      Dzx                  0.500
     Ti     8      Dxx-yy               0.593
     Ti     8      Dxy                  0.592
     Ti     8      Px                   0.321
     Ti     8      Py                   0.324
     Ti     8      Pz                   0.339
     Ti     9      S                    2.000
     Ti     9      Px                   2.003
     Ti     9      Py                   2.003
     Ti     9      Pz                   2.004
     Ti     9      S                    0.303
     Ti     9      Dzz                  0.492
     Ti     9      Dzy                  0.583
     Ti     9      Dzx                  0.606
     Ti     9      Dxx-yy               0.472
     Ti     9      Dxy                  0.456
     Ti     9      Px                   0.356
     Ti     9      Py                   0.347
     Ti     9      Pz                   0.339
     Ti    10      S                    2.004
     Ti    10      Px                   2.007
     Ti    10      Py                   2.006
     Ti    10      Pz                   2.006
     Ti    10      S                    0.270
     Ti    10      Dzz                  0.578
     Ti    10      Dzy                  0.514
     Ti    10      Dzx                  0.510
     Ti    10      Dxx-yy               0.611
     Ti    10      Dxy                  0.589
     Ti    10      Px                   0.280
     Ti    10      Py                   0.301
     Ti    10      Pz                   0.335
     Ti    11      S                    2.004
     Ti    11      Px                   2.006
     Ti    11      Py                   2.007
     Ti    11      Pz                   2.006
     Ti    11      S                    0.283
     Ti    11      Dzz                  0.598
     Ti    11      Dzy                  0.495
     Ti    11      Dzx                  0.482
     Ti    11      Dxx-yy               0.595
     Ti    11      Dxy                  0.615
     Ti    11      Px                   0.322
     Ti    11      Py                   0.304
     Ti    11      Pz                   0.325
     Ti    12      S                    2.000
     Ti    12      Px                   2.003
     Ti    12      Py                   2.003
     Ti    12      Pz                   2.004
     Ti    12      S                    0.300
     Ti    12      Dzz                  0.500
     Ti    12      Dzy                  0.606
     Ti    12      Dzx                  0.589
     Ti    12      Dxx-yy               0.446
     Ti    12      Dxy                  0.468
     Ti    12      Px                   0.347
     Ti    12      Py                   0.347
     Ti    12      Pz                   0.342
     Ti    13      S                    2.004
     Ti    13      Px                   2.006
     Ti    13      Py                   2.006
     Ti    13      Pz                   2.006
     Ti    13      S                    0.262
     Ti    13      Dzz                  0.569
     Ti    13      Dzy                  0.503
     Ti    13      Dzx                  0.506
     Ti    13      Dxx-yy               0.606
     Ti    13      Dxy                  0.605
     Ti    13      Px                   0.321
     Ti    13      Py                   0.313
     Ti    13      Pz                   0.344
     Ti    14      S                    2.004
     Ti    14      Px                   2.006
     Ti    14      Py                   2.007
     Ti    14      Pz                   2.006
     Ti    14      S                    0.275
     Ti    14      Dzz                  0.590
     Ti    14      Dzy                  0.505
     Ti    14      Dzx                  0.481
     Ti    14      Dxx-yy               0.592
     Ti    14      Dxy                  0.610
     Ti    14      Px                   0.330
     Ti    14      Py                   0.314
     Ti    14      Pz                   0.336
     Ti    15      S                    2.000
     Ti    15      Px                   2.002
     Ti    15      Py                   2.002
     Ti    15      Pz                   2.003
     Ti    15      S                    0.309
     Ti    15      Dzz                  0.490
     Ti    15      Dzy                  0.604
     Ti    15      Dzx                  0.605
     Ti    15      Dxx-yy               0.465
     Ti    15      Dxy                  0.442
     Ti    15      Px                   0.351
     Ti    15      Py                   0.346
     Ti    15      Pz                   0.341
     Ti    16      S                    2.003
     Ti    16      Px                   2.005
     Ti    16      Py                   2.006
     Ti    16      Pz                   2.005
     Ti    16      S                    0.276
     Ti    16      Dzz                  0.606
     Ti    16      Dzy                  0.496
     Ti    16      Dzx                  0.485
     Ti    16      Dxx-yy               0.590
     Ti    16      Dxy                  0.599
     Ti    16      Px                   0.312
     Ti    16      Py                   0.313
     Ti    16      Pz                   0.323
     Ti    17      S                    2.004
     Ti    17      Px                   2.006
     Ti    17      Py                   2.006
     Ti    17      Pz                   2.005
     Ti    17      S                    0.287
     Ti    17      Dzz                  0.607
     Ti    17      Dzy                  0.506
     Ti    17      Dzx                  0.484
     Ti    17      Dxx-yy               0.591
     Ti    17      Dxy                  0.591
     Ti    17      Px                   0.310
     Ti    17      Py                   0.313
     Ti    17      Pz                   0.329
     Ti    18      S                    2.000
     Ti    18      Px                   2.002
     Ti    18      Py                   2.003
     Ti    18      Pz                   2.003
     Ti    18      S                    0.306
     Ti    18      Dzz                  0.489
     Ti    18      Dzy                  0.605
     Ti    18      Dzx                  0.589
     Ti    18      Dxx-yy               0.460
     Ti    18      Dxy                  0.472
     Ti    18      Px                   0.354
     Ti    18      Py                   0.345
     Ti    18      Pz                   0.345
     Ti    19      S                    2.004
     Ti    19      Px                   2.007
     Ti    19      Py                   2.006
     Ti    19      Pz                   2.006
     Ti    19      S                    0.273
     Ti    19      Dzz                  0.576
     Ti    19      Dzy                  0.502
     Ti    19      Dzx                  0.507
     Ti    19      Dxx-yy               0.606
     Ti    19      Dxy                  0.606
     Ti    19      Px                   0.304
     Ti    19      Py                   0.292
     Ti    19      Pz                   0.339
     Ti    20      S                    2.004
     Ti    20      Px                   2.007
     Ti    20      Py                   2.006
     Ti    20      Pz                   2.006
     Ti    20      S                    0.274
     Ti    20      Dzz                  0.578
     Ti    20      Dzy                  0.500
     Ti    20      Dzx                  0.508
     Ti    20      Dxx-yy               0.601
     Ti    20      Dxy                  0.607
     Ti    20      Px                   0.300
     Ti    20      Py                   0.292
     Ti    20      Pz                   0.338
     Ti    21      S                    2.000
     Ti    21      Px                   2.002
     Ti    21      Py                   2.002
     Ti    21      Pz                   2.003
     Ti    21      S                    0.309
     Ti    21      Dzz                  0.507
     Ti    21      Dzy                  0.600
     Ti    21      Dzx                  0.589
     Ti    21      Dxx-yy               0.446
     Ti    21      Dxy                  0.464
     Ti    21      Px                   0.353
     Ti    21      Py                   0.346
     Ti    21      Pz                   0.336
     Ti    22      S                    2.004
     Ti    22      Px                   2.006
     Ti    22      Py                   2.006
     Ti    22      Pz                   2.006
     Ti    22      S                    0.271
     Ti    22      Dzz                  0.585
     Ti    22      Dzy                  0.499
     Ti    22      Dzx                  0.509
     Ti    22      Dxx-yy               0.598
     Ti    22      Dxy                  0.604
     Ti    22      Px                   0.309
     Ti    22      Py                   0.292
     Ti    22      Pz                   0.336
     Ti    23      S                    2.003
     Ti    23      Px                   2.006
     Ti    23      Py                   2.006
     Ti    23      Pz                   2.005
     Ti    23      S                    0.266
     Ti    23      Dzz                  0.564
     Ti    23      Dzy                  0.508
     Ti    23      Dzx                  0.502
     Ti    23      Dxx-yy               0.604
     Ti    23      Dxy                  0.599
     Ti    23      Px                   0.303
     Ti    23      Py                   0.316
     Ti    23      Pz                   0.349
     Ti    24      S                    2.000
     Ti    24      Px                   2.002
     Ti    24      Py                   2.003
     Ti    24      Pz                   2.003
     Ti    24      S                    0.309
     Ti    24      Dzz                  0.485
     Ti    24      Dzy                  0.618
     Ti    24      Dzx                  0.600
     Ti    24      Dxx-yy               0.440
     Ti    24      Dxy                  0.466
     Ti    24      Px                   0.348
     Ti    24      Py                   0.348
     Ti    24      Pz                   0.346
     Ti    25      S                    2.003
     Ti    25      Px                   2.006
     Ti    25      Py                   2.006
     Ti    25      Pz                   2.005
     Ti    25      S                    0.268
     Ti    25      Dzz                  0.581
     Ti    25      Dzy                  0.495
     Ti    25      Dzx                  0.496
     Ti    25      Dxx-yy               0.608
     Ti    25      Dxy                  0.593
     Ti    25      Px                   0.327
     Ti    25      Py                   0.327
     Ti    25      Pz                   0.339
     Ti    26      S                    2.003
     Ti    26      Px                   2.006
     Ti    26      Py                   2.005
     Ti    26      Pz                   2.004
     Ti    26      S                    0.268
     Ti    26      Dzz                  0.609
     Ti    26      Dzy                  0.482
     Ti    26      Dzx                  0.505
     Ti    26      Dxx-yy               0.578
     Ti    26      Dxy                  0.604
     Ti    26      Px                   0.288
     Ti    26      Py                   0.287
     Ti    26      Pz                   0.341
     Ti    27      S                    2.000
     Ti    27      Px                   2.002
     Ti    27      Py                   2.003
     Ti    27      Pz                   2.003
     Ti    27      S                    0.315
     Ti    27      Dzz                  0.489
     Ti    27      Dzy                  0.607
     Ti    27      Dzx                  0.590
     Ti    27      Dxx-yy               0.444
     Ti    27      Dxy                  0.489
     Ti    27      Px                   0.337
     Ti    27      Py                   0.323
     Ti    27      Pz                   0.334
     Ti    28      S                    2.002
     Ti    28      Px                   2.005
     Ti    28      Py                   2.005
     Ti    28      Pz                   2.005
     Ti    28      S                    0.286
     Ti    28      Dzz                  0.571
     Ti    28      Dzy                  0.513
     Ti    28      Dzx                  0.540
     Ti    28      Dxx-yy               0.513
     Ti    28      Dxy                  0.562
     Ti    28      Px                   0.309
     Ti    28      Py                   0.319
     Ti    28      Pz                   0.352
     Ti    29      S                    2.002
     Ti    29      Px                   2.006
     Ti    29      Py                   2.005
     Ti    29      Pz                   2.004
     Ti    29      S                    0.295
     Ti    29      Dzz                  0.557
     Ti    29      Dzy                  0.471
     Ti    29      Dzx                  0.492
     Ti    29      Dxx-yy               0.620
     Ti    29      Dxy                  0.605
     Ti    29      Px                   0.337
     Ti    29      Py                   0.332
     Ti    29      Pz                   0.271
     Ti    30      S                    1.999
     Ti    30      Px                   2.002
     Ti    30      Py                   2.002
     Ti    30      Pz                   2.003
     Ti    30      S                    0.306
     Ti    30      Dzz                  0.495
     Ti    30      Dzy                  0.601
     Ti    30      Dzx                  0.573
     Ti    30      Dxx-yy               0.461
     Ti    30      Dxy                  0.468
     Ti    30      Px                   0.366
     Ti    30      Py                   0.358
     Ti    30      Pz                   0.334
     Ti    31      S                    2.002
     Ti    31      Px                   2.005
     Ti    31      Py                   2.005
     Ti    31      Pz                   2.005
     Ti    31      S                    0.278
     Ti    31      Dzz                  0.550
     Ti    31      Dzy                  0.491
     Ti    31      Dzx                  0.557
     Ti    31      Dxx-yy               0.549
     Ti    31      Dxy                  0.551
     Ti    31      Px                   0.307
     Ti    31      Py                   0.303
     Ti    31      Pz                   0.352
     Ti    32      S                    2.000
     Ti    32      Px                   2.002
     Ti    32      Py                   2.003
     Ti    32      Pz                   2.003
     Ti    32      S                    0.315
     Ti    32      Dzz                  0.510
     Ti    32      Dzy                  0.601
     Ti    32      Dzx                  0.598
     Ti    32      Dxx-yy               0.437
     Ti    32      Dxy                  0.479
     Ti    32      Px                   0.333
     Ti    32      Py                   0.314
     Ti    32      Pz                   0.337
     Ti    33      S                    2.002
     Ti    33      Px                   2.005
     Ti    33      Py                   2.006
     Ti    33      Pz                   2.005
     Ti    33      S                    0.281
     Ti    33      Dzz                  0.589
     Ti    33      Dzy                  0.484
     Ti    33      Dzx                  0.527
     Ti    33      Dxx-yy               0.544
     Ti    33      Dxy                  0.587
     Ti    33      Px                   0.303
     Ti    33      Py                   0.277
     Ti    33      Pz                   0.355
     Ti    34      S                    2.001
     Ti    34      Px                   2.004
     Ti    34      Py                   2.004
     Ti    34      Pz                   2.004
     Ti    34      S                    0.303
     Ti    34      Dzz                  0.520
     Ti    34      Dzy                  0.592
     Ti    34      Dzx                  0.566
     Ti    34      Dxx-yy               0.486
     Ti    34      Dxy                  0.484
     Ti    34      Px                   0.307
     Ti    34      Py                   0.345
     Ti    34      Pz                   0.338
     Ti    35      S                    2.002
     Ti    35      Px                   2.005
     Ti    35      Py                   2.004
     Ti    35      Pz                   2.004
     Ti    35      S                    0.291
     Ti    35      Dzz                  0.599
     Ti    35      Dzy                  0.540
     Ti    35      Dzx                  0.509
     Ti    35      Dxx-yy               0.555
     Ti    35      Dxy                  0.531
     Ti    35      Px                   0.303
     Ti    35      Py                   0.263
     Ti    35      Pz                   0.345
     Ti    36      S                    2.003
     Ti    36      Px                   2.006
     Ti    36      Py                   2.006
     Ti    36      Pz                   2.005
     Ti    36      S                    0.337
     Ti    36      Dzz                  0.569
     Ti    36      Dzy                  0.486
     Ti    36      Dzx                  0.484
     Ti    36      Dxx-yy               0.606
     Ti    36      Dxy                  0.618
     Ti    36      Px                   0.377
     Ti    36      Py                   0.375
     Ti    36      Pz                   0.241
     Ti    37      S                    2.001
     Ti    37      Px                   2.004
     Ti    37      Py                   2.004
     Ti    37      Pz                   2.005
     Ti    37      S                    0.299
     Ti    37      Dzz                  0.506
     Ti    37      Dzy                  0.585
     Ti    37      Dzx                  0.562
     Ti    37      Dxx-yy               0.521
     Ti    37      Dxy                  0.455
     Ti    37      Px                   0.342
     Ti    37      Py                   0.337
     Ti    37      Pz                   0.330
     Ti    38      S                    2.002
     Ti    38      Px                   2.005
     Ti    38      Py                   2.005
     Ti    38      Pz                   2.005
     Ti    38      S                    0.278
     Ti    38      Dzz                  0.557
     Ti    38      Dzy                  0.554
     Ti    38      Dzx                  0.501
     Ti    38      Dxx-yy               0.594
     Ti    38      Dxy                  0.502
     Ti    38      Px                   0.320
     Ti    38      Py                   0.306
     Ti    38      Pz                   0.343
     Ti    39      S                    2.002
     Ti    39      Px                   2.005
     Ti    39      Py                   2.004
     Ti    39      Pz                   2.004
     Ti    39      S                    0.307
     Ti    39      Dzz                  0.537
     Ti    39      Dzy                  0.604
     Ti    39      Dzx                  0.557
     Ti    39      Dxx-yy               0.493
     Ti    39      Dxy                  0.468
     Ti    39      Px                   0.304
     Ti    39      Py                   0.344
     Ti    39      Pz                   0.335
     Ti    40      S                    2.002
     Ti    40      Px                   2.004
     Ti    40      Py                   2.005
     Ti    40      Pz                   2.005
     Ti    40      S                    0.293
     Ti    40      Dzz                  0.578
     Ti    40      Dzy                  0.516
     Ti    40      Dzx                  0.513
     Ti    40      Dxx-yy               0.576
     Ti    40      Dxy                  0.530
     Ti    40      Px                   0.329
     Ti    40      Py                   0.264
     Ti    40      Pz                   0.336
     Ti    41      S                    2.003
     Ti    41      Px                   2.005
     Ti    41      Py                   2.006
     Ti    41      Pz                   2.005
     Ti    41      S                    0.288
     Ti    41      Dzz                  0.580
     Ti    41      Dzy                  0.505
     Ti    41      Dzx                  0.518
     Ti    41      Dxx-yy               0.606
     Ti    41      Dxy                  0.579
     Ti    41      Px                   0.311
     Ti    41      Py                   0.299
     Ti    41      Pz                   0.300
     Ti    42      S                    2.000
     Ti    42      Px                   2.002
     Ti    42      Py                   2.002
     Ti    42      Pz                   2.004
     Ti    42      S                    0.325
     Ti    42      Dzz                  0.477
     Ti    42      Dzy                  0.608
     Ti    42      Dzx                  0.633
     Ti    42      Dxx-yy               0.463
     Ti    42      Dxy                  0.449
     Ti    42      Px                   0.327
     Ti    42      Py                   0.369
     Ti    42      Pz                   0.311
     Ti    43      S                    2.002
     Ti    43      Px                   2.005
     Ti    43      Py                   2.006
     Ti    43      Pz                   2.005
     Ti    43      S                    0.298
     Ti    43      Dzz                  0.574
     Ti    43      Dzy                  0.503
     Ti    43      Dzx                  0.480
     Ti    43      Dxx-yy               0.571
     Ti    43      Dxy                  0.614
     Ti    43      Px                   0.335
     Ti    43      Py                   0.329
     Ti    43      Pz                   0.280
     Ti    44      S                    2.003
     Ti    44      Px                   2.006
     Ti    44      Py                   2.006
     Ti    44      Pz                   2.005
     Ti    44      S                    0.301
     Ti    44      Dzz                  0.574
     Ti    44      Dzy                  0.500
     Ti    44      Dzx                  0.486
     Ti    44      Dxx-yy               0.587
     Ti    44      Dxy                  0.597
     Ti    44      Px                   0.355
     Ti    44      Py                   0.333
     Ti    44      Pz                   0.292
     Ti    45      S                    2.000
     Ti    45      Px                   2.002
     Ti    45      Py                   2.002
     Ti    45      Pz                   2.004
     Ti    45      S                    0.328
     Ti    45      Dzz                  0.470
     Ti    45      Dzy                  0.625
     Ti    45      Dzx                  0.618
     Ti    45      Dxx-yy               0.463
     Ti    45      Dxy                  0.449
     Ti    45      Px                   0.326
     Ti    45      Py                   0.355
     Ti    45      Pz                   0.314
     Ti    46      S                    2.003
     Ti    46      Px                   2.006
     Ti    46      Py                   2.006
     Ti    46      Pz                   2.005
     Ti    46      S                    0.286
     Ti    46      Dzz                  0.619
     Ti    46      Dzy                  0.505
     Ti    46      Dzx                  0.476
     Ti    46      Dxx-yy               0.604
     Ti    46      Dxy                  0.590
     Ti    46      Px                   0.319
     Ti    46      Py                   0.294
     Ti    46      Pz                   0.295
     Ti    47      S                    2.000
     Ti    47      Px                   2.003
     Ti    47      Py                   2.003
     Ti    47      Pz                   2.004
     Ti    47      S                    0.309
     Ti    47      Dzz                  0.510
     Ti    47      Dzy                  0.578
     Ti    47      Dzx                  0.597
     Ti    47      Dxx-yy               0.475
     Ti    47      Dxy                  0.487
     Ti    47      Px                   0.323
     Ti    47      Py                   0.281
     Ti    47      Pz                   0.319
     Ti    48      S                    2.005
     Ti    48      Px                   2.007
     Ti    48      Py                   2.008
     Ti    48      Pz                   2.006
     Ti    48      S                    0.261
     Ti    48      Dzz                  0.573
     Ti    48      Dzy                  0.528
     Ti    48      Dzx                  0.501
     Ti    48      Dxx-yy               0.597
     Ti    48      Dxy                  0.588
     Ti    48      Px                   0.314
     Ti    48      Py                   0.303
     Ti    48      Pz                   0.353
     Ti    49      S                    2.004
     Ti    49      Px                   2.007
     Ti    49      Py                   2.006
     Ti    49      Pz                   2.006
     Ti    49      S                    0.258
     Ti    49      Dzz                  0.576
     Ti    49      Dzy                  0.501
     Ti    49      Dzx                  0.509
     Ti    49      Dxx-yy               0.598
     Ti    49      Dxy                  0.615
     Ti    49      Px                   0.309
     Ti    49      Py                   0.288
     Ti    49      Pz                   0.336
     Ti    50      S                    1.999
     Ti    50      Px                   2.002
     Ti    50      Py                   2.002
     Ti    50      Pz                   2.003
     Ti    50      S                    0.307
     Ti    50      Dzz                  0.498
     Ti    50      Dzy                  0.579
     Ti    50      Dzx                  0.605
     Ti    50      Dxx-yy               0.470
     Ti    50      Dxy                  0.453
     Ti    50      Px                   0.327
     Ti    50      Py                   0.360
     Ti    50      Pz                   0.334
     Ti    51      S                    2.004
     Ti    51      Px                   2.006
     Ti    51      Py                   2.007
     Ti    51      Pz                   2.005
     Ti    51      S                    0.277
     Ti    51      Dzz                  0.581
     Ti    51      Dzy                  0.517
     Ti    51      Dzx                  0.461
     Ti    51      Dxx-yy               0.576
     Ti    51      Dxy                  0.627
     Ti    51      Px                   0.315
     Ti    51      Py                   0.298
     Ti    51      Pz                   0.336
     Ti    52      S                    2.004
     Ti    52      Px                   2.007
     Ti    52      Py                   2.006
     Ti    52      Pz                   2.006
     Ti    52      S                    0.267
     Ti    52      Dzz                  0.579
     Ti    52      Dzy                  0.500
     Ti    52      Dzx                  0.508
     Ti    52      Dxx-yy               0.600
     Ti    52      Dxy                  0.606
     Ti    52      Px                   0.310
     Ti    52      Py                   0.290
     Ti    52      Pz                   0.343
     Ti    53      S                    2.000
     Ti    53      Px                   2.003
     Ti    53      Py                   2.003
     Ti    53      Pz                   2.004
     Ti    53      S                    0.312
     Ti    53      Dzz                  0.506
     Ti    53      Dzy                  0.592
     Ti    53      Dzx                  0.607
     Ti    53      Dxx-yy               0.466
     Ti    53      Dxy                  0.474
     Ti    53      Px                   0.344
     Ti    53      Py                   0.282
     Ti    53      Pz                   0.335
     Ti    54      S                    2.004
     Ti    54      Px                   2.007
     Ti    54      Py                   2.007
     Ti    54      Pz                   2.005
     Ti    54      S                    0.265
     Ti    54      Dzz                  0.580
     Ti    54      Dzy                  0.510
     Ti    54      Dzx                  0.474
     Ti    54      Dxx-yy               0.607
     Ti    54      Dxy                  0.607
     Ti    54      Px                   0.304
     Ti    54      Py                   0.319
     Ti    54      Pz                   0.348
     Ti    55      S                    2.004
     Ti    55      Px                   2.007
     Ti    55      Py                   2.006
     Ti    55      Pz                   2.005
     Ti    55      S                    0.247
     Ti    55      Dzz                  0.591
     Ti    55      Dzy                  0.499
     Ti    55      Dzx                  0.486
     Ti    55      Dxx-yy               0.597
     Ti    55      Dxy                  0.618
     Ti    55      Px                   0.300
     Ti    55      Py                   0.309
     Ti    55      Pz                   0.354
     Ti    56      S                    2.001
     Ti    56      Px                   2.004
     Ti    56      Py                   2.003
     Ti    56      Pz                   2.003
     Ti    56      S                    0.283
     Ti    56      Dzz                  0.554
     Ti    56      Dzy                  0.518
     Ti    56      Dzx                  0.515
     Ti    56      Dxx-yy               0.531
     Ti    56      Dxy                  0.575
     Ti    56      Px                   0.307
     Ti    56      Py                   0.303
     Ti    56      Pz                   0.345
     Ti    57      S                    2.004
     Ti    57      Px                   2.006
     Ti    57      Py                   2.007
     Ti    57      Pz                   2.006
     Ti    57      S                    0.283
     Ti    57      Dzz                  0.567
     Ti    57      Dzy                  0.516
     Ti    57      Dzx                  0.499
     Ti    57      Dxx-yy               0.595
     Ti    57      Dxy                  0.606
     Ti    57      Px                   0.319
     Ti    57      Py                   0.312
     Ti    57      Pz                   0.345
     Ti    58      S                    2.001
     Ti    58      Px                   2.004
     Ti    58      Py                   2.004
     Ti    58      Pz                   2.004
     Ti    58      S                    0.294
     Ti    58      Dzz                  0.520
     Ti    58      Dzy                  0.528
     Ti    58      Dzx                  0.584
     Ti    58      Dxx-yy               0.445
     Ti    58      Dxy                  0.548
     Ti    58      Px                   0.362
     Ti    58      Py                   0.319
     Ti    58      Pz                   0.338
     Ti    59      S                    2.002
     Ti    59      Px                   2.005
     Ti    59      Py                   2.005
     Ti    59      Pz                   2.004
     Ti    59      S                    0.276
     Ti    59      Dzz                  0.572
     Ti    59      Dzy                  0.500
     Ti    59      Dzx                  0.533
     Ti    59      Dxx-yy               0.538
     Ti    59      Dxy                  0.570
     Ti    59      Px                   0.301
     Ti    59      Py                   0.312
     Ti    59      Pz                   0.345
     Ti    60      S                    2.004
     Ti    60      Px                   2.006
     Ti    60      Py                   2.006
     Ti    60      Pz                   2.005
     Ti    60      S                    0.281
     Ti    60      Dzz                  0.593
     Ti    60      Dzy                  0.482
     Ti    60      Dzx                  0.497
     Ti    60      Dxx-yy               0.596
     Ti    60      Dxy                  0.602
     Ti    60      Px                   0.317
     Ti    60      Py                   0.321
     Ti    60      Pz                   0.333
     Ti    61      S                    2.002
     Ti    61      Px                   2.004
     Ti    61      Py                   2.005
     Ti    61      Pz                   2.004
     Ti    61      S                    0.296
     Ti    61      Dzz                  0.544
     Ti    61      Dzy                  0.508
     Ti    61      Dzx                  0.597
     Ti    61      Dxx-yy               0.472
     Ti    61      Dxy                  0.541
     Ti    61      Px                   0.336
     Ti    61      Py                   0.281
     Ti    61      Pz                   0.343
     Ti    62      S                    2.003
     Ti    62      Px                   2.006
     Ti    62      Py                   2.005
     Ti    62      Pz                   2.005
     Ti    62      S                    0.284
     Ti    62      Dzz                  0.603
     Ti    62      Dzy                  0.487
     Ti    62      Dzx                  0.494
     Ti    62      Dxx-yy               0.620
     Ti    62      Dxy                  0.539
     Ti    62      Px                   0.315
     Ti    62      Py                   0.334
     Ti    62      Pz                   0.326
     Ti    63      S                    2.001
     Ti    63      Px                   2.004
     Ti    63      Py                   2.004
     Ti    63      Pz                   2.004
     Ti    63      S                    0.305
     Ti    63      Dzz                  0.509
     Ti    63      Dzy                  0.590
     Ti    63      Dzx                  0.556
     Ti    63      Dxx-yy               0.506
     Ti    63      Dxy                  0.501
     Ti    63      Px                   0.294
     Ti    63      Py                   0.326
     Ti    63      Pz                   0.340
[...]
             Ti 59 -- V 3                    0.16        2.72379
             Ti 28 -- Ti 29                  0.21        2.72455
             Ti 59 -- Ti 60                  0.24        2.72492
             Ti 5  -- Ti 31                  0.28        2.73237
              Al 3 -- Ti 39                  0.31        2.73373
             Ti 56 -- Ti 65                  0.26        2.73758
              Al 2 -- V 1                    0.30        2.73802
             Ti 29 -- V 2                    0.17        2.74166
              Al 3 -- Ti 69                  0.28        2.74619
              Al 3 -- Al 4                   0.22        2.74745
             Ti 16 -- Ti 62                  0.29        2.75020
              Al 4 -- Ti 63                  0.33        2.75502
             Ti 36 -- Ti 58                  0.21        2.77209
              Al 4 -- V 3                    0.29        2.78374
             Ti 58 -- V 2                    0.33        2.78446
              Al 4 -- Ti 33                  0.28        2.78604
             Ti 36 -- Ti 66                  0.21        2.78707
              Al 3 -- V 3                    0.26        2.78904
              Al 6 -- Ti 44                  0.27        2.79081
              Al 7 -- Ti 41                  0.30        2.79092
              Al 6 -- Ti 46                  0.30        2.79450
              Al 2 -- Ti 61                  0.26        2.79455
              Al 4 -- Ti 34                  0.33        2.79483
             Ti 35 -- Ti 36                  0.18        2.79816
              Al 3 -- Ti 38                  0.26        2.79893
             Ti 28 -- Ti 31                  0.19        2.80094
              Al 8 -- Ti 67                  0.25        2.80354
             Ti 57 -- Ti 62                  0.10        2.80655
             Ti 20 -- Ti 23                  0.12        2.80986
             Ti 48 -- Ti 54                  0.12        2.81211
             Ti 58 -- V 1                    0.17        2.81290
             Ti 49 -- Ti 52                  0.03        2.81290
             Ti 36 -- Ti 37                  0.22        2.81804
              Al 8 -- Ti 64                  0.29        2.81827
             Ti 34 -- Ti 37                  0.31        2.82017
             Ti 65 -- Ti 68                  0.09        2.82087
             Ti 69 -- V 3                    0.16        2.82324
             Ti 28 -- Ti 36                  0.16        2.82581
             Ti 63 -- Ti 66                  0.27        2.82969
             Ti 9  -- Ti 15                  0.40        2.83007
             Ti 37 -- Ti 39                  0.30        2.83116
             Ti 1  -- Ti 6                   0.38        2.83146
              Al 4 -- Ti 56                  0.20        2.83255
             Ti 54 -- V 2                    0.21        2.83411
              Al 3 -- Ti 31                  0.24        2.83455
             Ti 42 -- Ti 45                  0.37        2.83545
              Al 7 -- Ti 43                  0.24        2.83672
             Ti 38 -- Ti 40                  0.15        2.83683
             Ti 14 -- Ti 17                  0.11        2.83750
             Ti 19 -- Ti 22                  0.08        2.83853
             Ti 47 -- Ti 53                  0.31        2.84001
             Ti 29 -- V 1                    0.17        2.84186
             Ti 56 -- V 3                    0.21        2.84239
             Ti 18 -- Ti 24                  0.39        2.84302
             Ti 30 -- Ti 32                  0.32        2.84320
             Ti 36 -- Ti 59                  0.21        2.84402
             Ti 2  -- Ti 7                   0.10        2.84469
             Ti 3  -- Ti 8                   0.08        2.84518
             Ti 61 -- V 2                    0.32        2.84591
             Ti 10 -- Ti 13                  0.08        2.84618
             Ti 48 -- Ti 51                  0.08        2.84639
             Ti 66 -- Ti 69                  0.30        2.84672
              Al 3 -- Ti 40                  0.26        2.84673
             Ti 27 -- Ti 30                  0.37        2.84680
             Ti 11 -- Ti 17                  0.07        2.84703
             Ti 18 -- Ti 21                  0.34        2.84769
             Ti 30 -- V 1                    0.21        2.84879
             Ti 48 -- Ti 58                  0.11        2.84937
             Ti 13 -- Ti 16                  0.08        2.85065
             Ti 22 -- Ti 25                  0.08        2.85080
             Ti 4  -- Ti 7                   0.10        2.85082
             Ti 3  -- Ti 5                   0.07        2.85191
              Al 5 -- Ti 45                  0.42        2.85235
             Ti 5  -- Ti 8                   0.07        2.85262
             Ti 50 -- Ti 53                  0.37        2.85307
             Ti 2  -- Ti 4                   0.07        2.85426
             Ti 10 -- Ti 16                  0.07        2.85432
             Ti 64 -- Ti 66                  0.17        2.85479
             Ti 65 -- Ti 66                  0.16        2.85487
             Ti 35 -- Ti 38                  0.23        2.85596
             Ti 12 -- Ti 15                  0.36        2.85637
             Ti 35 -- Ti 40                  0.17        2.85695
             Ti 47 -- Ti 50                  0.34        2.85771
              Al 1 -- Ti 1                   0.33        2.85835
              Al 1 -- Ti 6                   0.33        2.85961
             Ti 27 -- Ti 32                  0.33        2.86015
             Ti 21 -- Ti 24                  0.35        2.86018
             Ti 28 -- Ti 33                  0.18        2.86038
             Ti 19 -- Ti 25                  0.07        2.86059
              Al 5 -- Ti 42                  0.35        2.86249
             Ti 65 -- Ti 70                  0.13        2.86268
             Ti 9  -- Ti 12                  0.33        2.86378
             Ti 11 -- Ti 14                  0.10        2.86564
             Ti 52 -- Ti 55                  0.06        2.86690
             Ti 68 -- Ti 70                  0.10        2.86729
             Ti 23 -- Ti 26                  0.13        2.86781
             Ti 49 -- Ti 55                  0.07        2.87036
              Al 3 -- Ti 59                  0.20        2.87122
             Ti 61 -- V 3                    0.17        2.87273
             Ti 20 -- Ti 26                  0.10        2.87340
             Ti 61 -- Ti 62                  0.04        2.87465
             Ti 57 -- Ti 60                  0.12        2.87525
             Ti 42 -- Ti 44                  0.21        2.87591
             Ti 63 -- Ti 69                  0.27        2.87600
             Ti 2  -- Ti 37                  0.17        2.87892
              Al 4 -- Ti 36                  0.20        2.88026
             Ti 67 -- Ti 69                  0.17        2.88189
              Al 7 -- Ti 27                  0.24        2.88395
             Ti 32 -- Ti 43                  0.13        2.88511
             Ti 63 -- Ti 70                  0.09        2.88592
             Ti 60 -- Ti 62                  0.10        2.88659
             Ti 62 -- V 2                    0.09        2.88814
             Ti 31 -- Ti 33                  0.18        2.88861
              Al 4 -- Ti 40                  0.25        2.89066
              Al 7 -- Ti 47                  0.24        2.89192
             Ti 11 -- Ti 37                  0.15        2.89394
             Ti 44 -- Ti 66                  0.16        2.89496
             Ti 4  -- Ti 39                  0.13        2.89502
             Ti 36 -- Ti 38                  0.19        2.89614
             Ti 53 -- Ti 67                  0.17        2.89649
             Ti 51 -- Ti 54                  0.13        2.89767
             Ti 34 -- Ti 39                  0.33        2.89913
              Al 8 -- Ti 63                  0.24        2.89949
             Ti 28 -- V 2                    0.17        2.90020
             Ti 51 -- Ti 58                  0.11        2.90204
             Ti 21 -- Ti 65                  0.19        2.90454
              Al 3 -- Ti 33                  0.22        2.90839
             Ti 18 -- Ti 62                  0.15        2.90947
             Ti 48 -- V 2                    0.15        2.90981
              Al 6 -- Ti 66                  0.22        2.91363
             Ti 4  -- Ti 37                  0.15        2.91389
             Ti 14 -- Ti 39                  0.13        2.91440
             Ti 7  -- Ti 39                  0.15        2.91459
              Al 6 -- Ti 63                  0.22        2.91608
             Ti 11 -- Ti 34                  0.15        2.91636
             Ti 1  -- Ti 64                  0.15        2.91666
             Ti 44 -- Ti 50                  0.16        2.91722
             Ti 6  -- Ti 67                  0.12        2.91765
             Ti 51 -- Ti 61                  0.13        2.91767
              Al 2 -- Ti 32                  0.25        2.91775
             Ti 36 -- Ti 56                  0.18        2.91996
             Ti 24 -- Ti 68                  0.13        2.92009
             Ti 66 -- Ti 67                  0.14        2.92019
             Ti 31 -- Ti 36                  0.16        2.92144
              Al 2 -- V 2                    0.20        2.92157
             Ti 34 -- Ti 35                  0.13        2.92254
             Ti 27 -- Ti 29                  0.16        2.92503
             Ti 33 -- V 2                    0.15        2.92522
              Al 4 -- Ti 28                  0.18        2.92593
              Al 3 -- Ti 36                  0.17        2.92735
             Ti 64 -- Ti 67                  0.11        2.92829
             Ti 3  -- Ti 37                  0.15        2.92882
              Al 2 -- Ti 53                  0.25        2.92985
             Ti 41 -- Ti 43                  0.09        2.93070
             Ti 5  -- Ti 39                  0.12        2.93071
              Al 8 -- Ti 69                  0.23        2.93112
             Ti 58 -- Ti 61                  0.27        2.93143
             Ti 2  -- Ti 34                  0.12        2.93187
             Ti 43 -- Ti 53                  0.12        2.93232
             Ti 68 -- Ti 69                  0.09        2.93248
             Ti 46 -- Ti 53                  0.15        2.93352
             Ti 5  -- Ti 37                  0.13        2.93375
             Ti 29 -- Ti 47                  0.15        2.93514
             Ti 33 -- Ti 61                  0.12        2.93684
             Ti 24 -- Ti 70                  0.13        2.93735
             Ti 18 -- Ti 70                  0.11        2.93754
             Ti 57 -- Ti 58                  0.14        2.93901
             Ti 9  -- Ti 57                  0.11        2.94012
              Al 6 -- Ti 47                  0.23        2.94073
             Ti 21 -- Ti 68                  0.17        2.94122
             Ti 9  -- Ti 54                  0.15        2.94236
             Ti 7  -- Ti 34                  0.13        2.94318
             Ti 60 -- Ti 61                  0.15        2.94436
             Ti 8  -- Ti 39                  0.13        2.94467
             Ti 66 -- Ti 68                  0.18        2.94476
             Ti 9  -- Ti 17                  0.15        2.94568
             Ti 45 -- Ti 46                  0.17        2.94612
              Al 1 -- Ti 64                  0.18        2.94745
              Al 8 -- Ti 1                   0.20        2.94825
             Ti 16 -- Ti 18                  0.15        2.94940
             Ti 17 -- Ti 34                  0.14        2.94954
             Ti 18 -- Ti 20                  0.14        2.94994
             Ti 4  -- Ti 12                  0.14        2.95120
             Ti 35 -- Ti 63                  0.15        2.95124
             Ti 12 -- Ti 52                  0.12        2.95168
             Ti 3  -- Ti 30                  0.16        2.95351
              Al 8 -- Ti 53                  0.18        2.95437
              Al 5 -- Ti 46                  0.21        2.95482
              Al 8 -- Ti 47                  0.19        2.95488
             Ti 41 -- Ti 42                  0.15        2.95502
             Ti 3  -- Ti 34                  0.12        2.95522
             Ti 6  -- Ti 25                  0.12        2.95545
             Ti 56 -- V 2                    0.17        2.95564
             Ti 37 -- Ti 38                  0.11        2.95590
             Ti 24 -- Ti 60                  0.13        2.95706
             Ti 17 -- Ti 39                  0.11        2.95808
             Ti 9  -- Ti 10                  0.13        2.95854
              Al 5 -- Ti 17                  0.17        2.95867
             Ti 63 -- Ti 64                  0.12        2.95879
             Ti 12 -- Ti 57                  0.15        2.95935
             Ti 24 -- Ti 62                  0.14        2.95997
             Ti 15 -- Ti 54                  0.14        2.96018
             Ti 46 -- Ti 47                  0.13        2.96056
              Al 8 -- Ti 6                   0.20        2.96057
              Al 5 -- Al 6                   0.20        2.96068
             Ti 15 -- Ti 16                  0.13        2.96175
             Ti 69 -- Ti 70                  0.06        2.96221
             Ti 15 -- Ti 60                  0.14        2.96311
             Ti 56 -- Ti 63                  0.14        2.96346
             Ti 28 -- Ti 58                  0.08        2.96348
             Ti 46 -- Ti 69                  0.13        2.96370
             Ti 59 -- Ti 61                  0.13        2.96411
             Ti 8  -- Ti 27                  0.11        2.96438
             Ti 46 -- Ti 63                  0.15        2.96462
             Ti 28 -- Ti 34                  0.13        2.96500
             Ti 44 -- Ti 46                  0.12        2.96512
             Ti 8  -- Ti 34                  0.11        2.96683
             Ti 14 -- Ti 37                  0.13        2.96719
             Ti 31 -- Ti 37                  0.13        2.96824
             Ti 9  -- Ti 16                  0.13        2.96832
             Ti 47 -- Ti 64                  0.11        2.96845
             Ti 39 -- Ti 40                  0.13        2.96931
             Ti 21 -- Ti 57                  0.16        2.97025
             Ti 5  -- Ti 32                  0.15        2.97039
             Ti 30 -- Ti 41                  0.12        2.97189
             Ti 26 -- Ti 27                  0.16        2.97247
             Ti 6  -- Ti 7                   0.11        2.97278
             Ti 44 -- Ti 45                  0.14        2.97362
             Ti 40 -- Ti 69                  0.13        2.97447
             Ti 10 -- Ti 42                  0.10        2.97506
             Ti 1  -- Ti 7                   0.11        2.97508
             Ti 58 -- Ti 59                  0.16        2.97517
              Al 2 -- Ti 29                  0.22        2.97682
             Ti 52 -- Ti 53                  0.13        2.97697
             Ti 63 -- Ti 65                  0.08        2.97714
             Ti 14 -- Ti 45                  0.14        2.97739
              Al 6 -- Ti 50                  0.16        2.97811
             Ti 8  -- Ti 32                  0.12        2.97813
             Ti 59 -- Ti 66                  0.14        2.97835
             Ti 31 -- Ti 58                  0.08        2.97837
             Ti 1  -- Ti 25                  0.14        2.97868
             Ti 22 -- Ti 32                  0.13        2.97882
             Ti 18 -- Ti 56                  0.14        2.97960
              Al 7 -- Ti 53                  0.15        2.97969
             Ti 43 -- Ti 50                  0.10        2.97973
              Al 5 -- Ti 11                  0.18        2.98020
             Ti 38 -- Ti 39                  0.13        2.98039
              Al 5 -- Ti 10                  0.14        2.98068
             Ti 5  -- Ti 30                  0.16        2.98078
             Ti 14 -- Ti 42                  0.16        2.98081
             Ti 12 -- Ti 13                  0.12        2.98105
             Ti 12 -- Ti 14                  0.11        2.98156
             Ti 11 -- Ti 42                  0.14        2.98191
             Ti 12 -- Ti 48                  0.11        2.98210
              Al 1 -- Ti 5                   0.17        2.98224
             Ti 44 -- Ti 69                  0.10        2.98280
              Al 1 -- Ti 4                   0.16        2.98300
             Ti 51 -- Ti 53                  0.13        2.98306
             Ti 15 -- Ti 55                  0.15        2.98342
              Al 1 -- Ti 2                   0.14        2.98410
              Al 1 -- Ti 67                  0.16        2.98439
             Ti 47 -- Ti 55                  0.09        2.98516
             Ti 29 -- Ti 58                  0.06        2.98601
             Ti 15 -- Ti 17                  0.11        2.98640
             Ti 2  -- Ti 12                  0.13        2.98724
             Ti 1  -- Ti 19                  0.13        2.98755
             Ti 16 -- Ti 24                  0.14        2.98761
             Ti 2  -- Ti 9                   0.11        2.98778
             Ti 9  -- Ti 11                  0.14        2.98823
             Ti 43 -- Ti 45                  0.20        2.98842
             Ti 27 -- Ti 41                  0.17        2.98851
             Ti 31 -- Ti 61                  0.08        2.98879
              Al 1 -- Ti 22                  0.16        2.98953
             Ti 21 -- Ti 60                  0.15        2.98958
             Ti 63 -- V 3                    0.17        2.98990
              Al 1 -- Ti 65                  0.16        2.99063
             Ti 6  -- Ti 68                  0.12        2.99131
             Ti 41 -- Ti 50                  0.13        2.99141
             Ti 58 -- Ti 60                  0.15        2.99222
             Ti 19 -- Ti 27                  0.11        2.99257
             Ti 53 -- Ti 55                  0.06        2.99359
              Al 1 -- Ti 19                  0.15        2.99371
             Ti 3  -- Ti 27                  0.14        2.99373
             Ti 56 -- Ti 59                  0.21        2.99434
             Ti 12 -- Ti 49                  0.13        2.99447
             Ti 20 -- Ti 21                  0.10        2.99573
              Al 4 -- Ti 35                  0.18        2.99591
             Ti 26 -- Ti 45                  0.11        2.99634
             Ti 1  -- Ti 2                   0.12        2.99656
             Ti 15 -- Ti 52                  0.09        2.99712
              Al 5 -- Ti 41                  0.16        2.99854
             Ti 38 -- Ti 69                  0.13        2.99891
             Ti 4  -- Ti 6                   0.12        2.99907
             Ti 47 -- Ti 49                  0.10        2.99913
             Ti 13 -- Ti 42                  0.13        2.99948
             Ti 19 -- Ti 30                  0.14        2.99951
             Ti 10 -- Ti 12                  0.11        2.99953
             Ti 18 -- Ti 57                  0.13        2.99963
             Ti 23 -- Ti 42                  0.12        2.99987
======================================================================

 
 A BibTeX formatted list of references used in this run has been written to 
 sqs_hex_sc3x3x3_Ti70Al8V3_frame0_03.bib
 
Initialisation time =     23.52 s
Calculation time    =   6592.22 s
Finalisation time   =      0.56 s
Total time          =   6616.29 s
Peak Memory Use     = 2628224 kB
 
Overall parallel efficiency rating: Mediocre (58%)
 
Data was distributed by:-
G-vector (16-way); efficiency rating: Mediocre (58%)
k-point (15-way); efficiency rating: Excellent (97%)
