 +-------------------------------------------------+
 |                                                 |
 |      CCC   AA    SSS  TTTTT  EEEEE  PPPP        |
 |     C     A  A  S       T    E      P   P       |
 |     C     AAAA   SS     T    EEE    PPPP        |
 |     C     A  A     S    T    E      P           |
 |      CCC  A  A  SSS     T    EEEEE  P           |
 |                                                 |
 +-------------------------------------------------+
 |                                                 |
 | Welcome to Academic Release CASTEP version 24.1 |
 | Ab Initio Total Energy Program                  |
 |                                                 |
 | Authors:                                        |
 | M. Segall, M. Probert, C. Pickard, P. Hasnip,   |
 | S. Clark, K. Refson, J. R. Yates,               |
 | A. Bartok-Partay, M. Payne                      |
 |                                                 |
 | Contributors:                                   |
 | P. Lindan, P. Haynes, J. White, V. Milman,      |
 | N. Govind, M. Gibson, P. Tulip, V. Cocula,      |
 | B. Montanari, D. Quigley, M. Glover,            |
 | L. Bernasconi, A. Perlov, M. Plummer,           |
 | E. McNellis, J. Meyer, J. Gale, D. Jochym       |
 | J. Aarons, B. Walker, R. Gillen, D. Jones       |
 | T. Green, I. J. Bush, C. J. Armstrong,          |
 | E. J. Higgins, E. L. Brown, M. S. McFly,        |
 | J. Wilkins, B-C. Shih, P. J. P. Byrne,          |
 | R. J. Maurer, J. C. Womack, J. Dziedzic,        |
 | L. LeBlanc, T. K. Stenczel, J. Kermode,         |
 | S. Sturniolo, B. Shi, B. Durham, M. Evans,      |
 | M. J. Smith, A. Tamerus, Z. Hawkhead,           |
 | V. Ravindran, T. Hollins, S. A. Joyce,          |
 | R. T. Strong, A. M. Reilly                      |
 |                                                 |
 | Copyright (c) 2000 - 2023                       |
 |                                                 |
 |     Distributed under license from Cambridge    |
 |     Enterprise for academic use only.           |
 |                                                 |
 | Please cite                                     |
 |                                                 |
 |     "First principles methods using CASTEP"     |
 |                                                 |
 |         Zeitschrift fuer Kristallographie       |
 |           220(5-6) pp. 567-570 (2005)           |
 |                                                 |
 | S. J. Clark, M. D. Segall, C. J. Pickard,       |
 | P. J. Hasnip, M. J. Probert, K. Refson,         |
 | M. C. Payne                                     |
 |                                                 |
 |       in all publications arising from          |
 |              your use of CASTEP                 |
 |                                                 |
 +-------------------------------------------------+
 |                                                 |
 |              http://www.castep.org              |
 |                                                 |
 +-------------------------------------------------+



 Compiled for linux_x86_64_gfortran10 on Tue, 02 May 2023 15:31:46 +0100
 from code version db08e394c+  default  Mon May 1 16:40:39 2023 +0100
 Compiler: GNU Fortran 10.2.0; Optimisation: fast
 Comms   : Open MPI v4.0.5
 MATHLIBS: openblas (LAPACK version 3.9.0)
 FFT Lib : fftw3 version fftw-3.3.8-sse2-avx-avx2-avx2_128
 Fundamental constants values: CODATA 2018

 Run started: Wed, 07 Feb 2024 16:56:56 +0000
 Info: number of up-spin electrons is not equal to the
       number of down-spins but spin_polarized=false
     - consider setting spin_polarized=true.

 Atomic calculation performed for Al: 1s2 2s2 2p6 3s2 3p1

 Converged in 54 iterations to an ae energy of -6603.783 eV

   ============================================================                
   | Pseudopotential Report - Date of generation  7-02-2024   |                
   ------------------------------------------------------------                
   | Element: Al Ionic charge:  3.00 Level of theory: PBE     |                
   | Atomic Solver: Koelling-Harmon                           |                
   |                                                          |                
   |               Reference Electronic Structure             |                
   |         Orbital         Occupation         Energy        |                
   |            3s              2.000           -0.285        |                
   |            3p              1.000           -0.100        |                
   |                                                          |                
   |                 Pseudopotential Definition               |                
   |        Beta     l      e      Rc     scheme   norm       |                
   |          1      0   -0.285   2.192     qc      0         |                
   |          2      0    0.250   2.192     qc      0         |                
   |          3      1   -0.100   2.192     qc      0         |                
   |          4      1    0.250   2.192     qc      0         |                
   |          5      2    0.000   2.000     qc      0         |                
   |          6      2    0.250   2.000     qc      0         |                
   |         loc     3    0.000   2.192     pn      0         |                
   |                                                          |                
   | Augmentation charge Rinner = 1.398                       |                
   | Partial core correction Rc = 1.398                       |                
   ------------------------------------------------------------                
   | "3|2.2|2.2|1.4|4|5|5|30:31:32U2U2"                       |                
   ------------------------------------------------------------                
   |      Author: Chris J. Pickard, Cambridge University      |                
   ============================================================                

 Atomic calculation performed for Ti: 1s2 2s2 2p6 3s2 3p6 3d2 4s2

 Converged in 79 iterations to an ae energy of -23226.658 eV

   ============================================================                
   | Pseudopotential Report - Date of generation  7-02-2024   |                
   ------------------------------------------------------------                
   | Element: Ti Ionic charge: 12.00 Level of theory: PBE     |                
   | Atomic Solver: Koelling-Harmon                           |                
   |                                                          |                
   |               Reference Electronic Structure             |                
   |         Orbital         Occupation         Energy        |                
   |            3s              2.000           -2.302        |                
   |            3p              6.000           -1.428        |                
   |            4s              2.000           -0.164        |                
   |            3d              2.000           -0.157        |                
   |                                                          |                
   |                 Pseudopotential Definition               |                
   |        Beta     l      e      Rc     scheme   norm       |                
   |          1      0   -2.302   1.793     qc      0         |                
   |          2      0   -0.164   1.793     qc      0         |                
   |          3      0    0.250   1.793     qc      0         |                
   |          4      1   -1.428   1.793     qc      0         |                
   |          5      1    0.250   1.793     qc      0         |                
   |          6      2   -0.157   1.793     qc      0         |                
   |          7      2    0.250   1.793     qc      0         |                
   |         loc     3    0.000   1.793     pn      0         |                
   |                                                          |                
   | Augmentation charge Rinner = 1.263                       |                
   | Partial core correction Rc = 1.263                       |                
   ------------------------------------------------------------                
   | "3|1.8|9|10|11|30U:40:31:32(qc=5.5)"                     |                
   ------------------------------------------------------------                
   |      Author: Chris J. Pickard, Cambridge University      |                
   ============================================================                

 Atomic calculation performed for V: 1s2 2s2 2p6 3s2 3p6 3d3 4s2

 Converged in 81 iterations to an ae energy of -25823.733 eV

   ============================================================                
   | Pseudopotential Report - Date of generation  7-02-2024   |                
   ------------------------------------------------------------                
   | Element: V Ionic charge: 13.00 Level of theory: PBE      |                
   | Atomic Solver: Koelling-Harmon                           |                
   |                                                          |                
   |               Reference Electronic Structure             |                
   |         Orbital         Occupation         Energy        |                
   |            3s              2.000           -2.581        |                
   |            3p              6.000           -1.618        |                
   |            3d              3.000           -0.190        |                
   |            4s              2.000           -0.173        |                
   |                                                          |                
   |                 Pseudopotential Definition               |                
   |        Beta     l      e      Rc     scheme   norm       |                
   |          1      0   -2.581   1.803     qc      0         |                
   |          2      0   -0.173   1.803     qc      0         |                
   |          3      0    0.250   1.803     qc      0         |                
   |          4      1   -1.618   1.803     qc      0         |                
   |          5      1    0.250   1.803     qc      0         |                
   |          6      2   -0.190   1.803     qc      0         |                
   |          7      2    0.250   1.803     qc      0         |                
   |         loc     3    0.000   1.803     pn      0         |                
   |                                                          |                
   | Augmentation charge Rinner = 0.600                       |                
   | Partial core correction Rc = 0.600                       |                
   ------------------------------------------------------------                
   | "3|1.8|1.8|0.6|12|14|16|30U:40:31:32(qc=7)"              |                
   ------------------------------------------------------------                
   |      Author: Chris J. Pickard, Cambridge University      |                
   ============================================================                

 Pseudo atomic calculation performed for Al 3s2 3p1

 Converged in 15 iterations to a total energy of -107.1308 eV

 Pseudo atomic calculation performed for Ti 3s2 3p6 3d2 4s2

 Converged in 34 iterations to a total energy of -1587.0236 eV

 Pseudo atomic calculation performed for V 3s2 3p6 3d3 4s2

 Converged in 35 iterations to a total energy of -2065.7874 eV
 Calculation parallelised over 240 processes.
 Data is distributed by G-vector(16-way) and k-point(15-way)

 ************************************ Title ************************************
 

 ***************************** General Parameters ******************************
  
 output verbosity                               : normal  (1)
 write checkpoint data to                       : sqs_hex_sc3x3x3_Ti70Al8V3_frame0_01.check
 type of calculation                            : single point energy
 stress calculation                             : on
 density difference calculation                 : off
 electron localisation func (ELF) calculation   : off
 Hirshfeld analysis                             : off
 polarisation (Berry phase) analysis            : off
 molecular orbital projected DOS                : off
 deltaSCF calculation                           : off
 unlimited duration calculation
 timing information                             : on
 memory usage estimate                          : on
 write extra output files                       : on
 write final potential to formatted file        : off
 write final density to formatted file          : off
 write BibTeX reference list                    : on
 write OTFG pseudopotential files               : on
 write electrostatic potential file             : on
 write bands file                               : on
 checkpoint writing                             : off
  
 output         length unit                     : A
 output           mass unit                     : amu
 output           time unit                     : ps
 output         charge unit                     : e
 output           spin unit                     : hbar/2
 output         energy unit                     : eV
 output          force unit                     : eV/A
 output       velocity unit                     : A/ps
 output       pressure unit                     : GPa
 output     inv_length unit                     : 1/A
 output      frequency unit                     : cm-1
 output force constant unit                     : eV/A**2
 output         volume unit                     : A**3
 output   IR intensity unit                     : (D/A)**2/amu
 output         dipole unit                     : D
 output         efield unit                     : eV/A/e
 output        entropy unit                     : J/mol/K
 output    efield chi2 unit                     : pm/V
  
 wavefunctions paging                           : none
 random number generator seed                   :  165656514
 data distribution                              : k-point only
 optimization strategy                          : maximize speed(+++)

 *********************** Exchange-Correlation Parameters ***********************
  
 using functional                               : Perdew Burke Ernzerhof
 relativistic treatment                         : Koelling-Harmon
 DFT+D: Semi-empirical dispersion correction    : off

 ************************* Pseudopotential Parameters **************************
  
 pseudopotential representation                 : reciprocal space
 <beta|phi> representation                      : reciprocal space
 spin-orbit coupling                            : off

 **************************** Basis Set Parameters *****************************
  
 plane wave basis set cut-off                   :   800.0000   eV
 size of standard grid                          :     2.0000
 size of   fine   gmax                          :    28.9810   1/A
 largest prime factor in FFT                    :          5
 finite basis set correction                    : automatic
 number of sample energies                      :          3
           sample  spacing                      :     5.0000   eV

 **************************** Electronic Parameters ****************************
  
 number of  electrons                           :  903.0    
 net charge of system                           :  0.000    
 treating system as non-spin-polarized
 number of bands                                :        487

 ********************* Electronic Minimization Parameters **********************
  
 Method: Treating system as metallic with density mixing treatment of electrons,
         and number of  SD  steps               :          1
         and number of  CG  steps               :          4
  
 total energy / atom convergence tol.           : 0.1000E-05   eV
 eigen-energy convergence tolerance             : 0.1663E-06   eV
 max force / atom convergence tol.              : ignored
 convergence tolerance window                   :          3   cycles
 max. number of SCF cycles                      :         30
 number of fixed-spin iterations                :         10
 smearing scheme                                : Gaussian
 smearing width                                 : 0.5000E-01   eV
 Fermi energy convergence tolerance             : 0.2721E-13   eV
 periodic dipole correction                     : NONE

 ************************** Density Mixing Parameters **************************
  
 density-mixing scheme                          : Pulay
 max. length of mixing history                  :         20
 charge density mixing amplitude                : 0.8000    
 cut-off energy for mixing                      :  800.0       eV
 charge density mixing g-vector                 :  1.500       1/A

 *********************** Population Analysis Parameters ************************
  
 Population analysis with cutoff                :  3.000       A
 Population analysis output                     : summary and pdos components

 ******************************* Developer Code ********************************
  
 PARALLEL: kpoint=15 : ENDPARALLEL
 no_improve_wvfn

 *******************************************************************************
  

                           -------------------------------
                                      Unit Cell
                           -------------------------------
        Real Lattice(A)                      Reciprocal Lattice(1/A)
     6.8351780   -11.8388760     0.0000590        0.459621191  -0.265362409   0.000002203
     6.8351780    11.8388760    -0.0000190        0.459621191   0.265362409   0.000000430
    -0.0000240     0.0000280     8.3800090       -0.000002194   0.000002470   0.749782644

                       Lattice parameters(A)       Cell Angles
                    a =     13.670356          alpha =   89.999996
                    b =     13.670356          beta  =   90.000001
                    c =      8.380009          gamma =  120.000002

                       Current cell volume =          1356.234480       A**3
                                   density =             2.742422   AMU/A**3
                                           =             4.553898     g/cm^3

                           -------------------------------
                                     Cell Contents
                           -------------------------------
                         Total number of ions in cell =   81
                      Total number of species in cell =    3
                        Max number of any one species =   70

            xxxxxxxxxxxxxxxxxxxxxxxxxxxxxxxxxxxxxxxxxxxxxxxxxxxxxxxxxxxx
            x  Element    Atom        Fractional coordinates of atoms  x
            x            Number           u          v          w      x
            x----------------------------------------------------------x
            x  Al           1        -0.000247  -0.001326   0.330733   x 
            x  Al           2         0.561171   0.117172   0.794242   x 
            x  Al           3         0.552346   0.444073   0.652557   x 
            x  Al           4         0.560953   0.442024   0.973541   x 
            x  Al           5         0.336101   0.664673  -0.004848   x 
            x  Al           6         0.557634   0.777502   0.155799   x 
            x  Al           7         0.450688   0.900541   0.839547   x 
            x  Al           8         0.779252   0.889231   0.832163   x 
            x  Ti           1        -0.001779  -0.002587  -0.003597   x 
            x  Ti           2         0.108549   0.219909   0.163498   x 
            x  Ti           3         0.222498   0.110493   0.162162   x 
            x  Ti           4         0.106828   0.220019   0.497345   x 
            x  Ti           5         0.221687   0.110436   0.495743   x 
            x  Ti           6        -0.001662  -0.002396   0.665211   x 
            x  Ti           7         0.108640   0.218419   0.830768   x 
            x  Ti           8         0.224869   0.111682   0.829381   x 
            x  Ti           9         0.003632   0.336991  -0.002433   x 
            x  Ti          10         0.115427   0.556488   0.162964   x 
            x  Ti          11         0.225239   0.444777   0.164822   x 
            x  Ti          12         0.002551   0.334690   0.332524   x 
            x  Ti          13         0.112660   0.557161   0.495839   x 
            x  Ti          14         0.223460   0.446833   0.499970   x 
            x  Ti          15        -0.000455   0.335350   0.666586   x 
            x  Ti          16         0.109243   0.556232   0.829239   x 
            x  Ti          17         0.221769   0.444388   0.831850   x 
            x  Ti          18         0.000365   0.665542  -0.004249   x 
            x  Ti          19         0.112536   0.889715   0.162442   x 
            x  Ti          20         0.217888   0.775277   0.164047   x 
            x  Ti          21        -0.005464   0.664090   0.328735   x 
            x  Ti          22         0.113142   0.888943   0.494455   x 
            x  Ti          23         0.221125   0.776339   0.492681   x 
            x  Ti          24        -0.004545   0.664505   0.663284   x 
            x  Ti          25         0.109696   0.888687   0.827867   x 
            x  Ti          26         0.224622   0.779543   0.828082   x 
            x  Ti          27         0.333992   0.000309  -0.006320   x 
            x  Ti          28         0.451283   0.234852   0.159903   x 
            x  Ti          29         0.556528   0.110575   0.142310   x 
            x  Ti          30         0.336418   0.005066   0.326601   x 
            x  Ti          31         0.452068   0.236456   0.487518   x 
            x  Ti          32         0.334858   0.002202   0.659143   x 
            x  Ti          33         0.451035   0.232520   0.825347   x 
            x  Ti          34         0.325672   0.330257  -0.001417   x 
            x  Ti          35         0.451406   0.548786   0.155394   x 
            x  Ti          36         0.558241   0.447419   0.310247   x 
            x  Ti          37         0.320581   0.326511   0.328374   x 
            x  Ti          38         0.449629   0.546337   0.489433   x 
            x  Ti          39         0.321492   0.327665   0.659526   x 
            x  Ti          40         0.449650   0.548696   0.821232   x 
            x  Ti          41         0.439522   0.885989   0.165315   x 
            x  Ti          42         0.335897   0.666633   0.329957   x 
            x  Ti          43         0.446670   0.896220   0.507807   x 
            x  Ti          44         0.552530   0.775180   0.482160   x 
            x  Ti          45         0.337370   0.669584   0.661591   x 
            x  Ti          46         0.554897   0.777830   0.828963   x 
            x  Ti          47         0.667139  -0.002828  -0.004772   x 
            x  Ti          48         0.780331   0.221598   0.168313   x 
            x  Ti          49         0.888455   0.112281   0.165778   x 
            x  Ti          50         0.662668  -0.004470   0.329432   x 
            x  Ti          51         0.770173   0.217601   0.500950   x 
            x  Ti          52         0.886936   0.114703   0.494753   x 
            x  Ti          53         0.667112  -0.005315   0.663059   x 
            x  Ti          54         0.782897   0.225112   0.839423   x 
            x  Ti          55         0.889225   0.112704   0.830038   x 
            x  Ti          56         0.769794   0.544721   0.135186   x 
            x  Ti          57         0.892755   0.443330   0.164231   x 
            x  Ti          58         0.671932   0.327119   0.321028   x 
            x  Ti          59         0.762578   0.547571   0.485135   x 
            x  Ti          60         0.888702   0.444169   0.500467   x 
            x  Ti          61         0.669707   0.333575   0.663686   x 
            x  Ti          62         0.877221   0.448702   0.837333   x 
            x  Ti          63         0.671184   0.674149  -0.005626   x 
            x  Ti          64         0.782764   0.892879   0.161762   x 
            x  Ti          65         0.888461   0.774609   0.169204   x 
            x  Ti          66         0.675867   0.682590   0.325152   x 
            x  Ti          67         0.781058   0.892616   0.504270   x 
            x  Ti          68         0.889891   0.775228   0.499151   x 
            x  Ti          69         0.670677   0.675987   0.657990   x 
            x  Ti          70         0.885427   0.769594   0.834433   x 
            x  V            1         0.552039   0.117615   0.474329   x 
            x  V            2         0.663753   0.316479  -0.004301   x 
            x  V            3         0.761099   0.553177   0.803565   x 
            xxxxxxxxxxxxxxxxxxxxxxxxxxxxxxxxxxxxxxxxxxxxxxxxxxxxxxxxxxxx


                         No user defined ionic velocities

                           -------------------------------
                                   Details of Species
                           -------------------------------

                               Mass of species in AMU
                                    Al   26.9815400
                                    Ti   47.8670000
                                    V   50.9415000

                          Electric Quadrupole Moment (Barn)
                                    Al    0.1466000 Isotope 27
                                    Ti    0.3020000 Isotope 47
                                    V   -0.0520000 Isotope 51

                          Files used for pseudopotentials:
                                    Al 3|2.2|2.2|1.4|4|5|5|30:31:32U2U2
                                    Ti 3|1.8|9|10|11|30U:40:31:32(qc=5.5)
                                    V 3|1.8|1.8|0.6|12|14|16|30U:40:31:32(qc=7)

                           -------------------------------
                              k-Points For BZ Sampling
                           -------------------------------
                       MP grid size for SCF calculation is  5  5  6
                            with an offset of   0.000  0.000  0.000
                       Number of kpoints used =            75

                           -------------------------------
                               Symmetry and Constraints
                           -------------------------------

                      Maximum deviation from symmetry =  0.00000         ANG

                      Number of symmetry operations   =           1
                      Number of ionic constraints     =           3
                      Point group of crystal =     1: C1, 1, 1
                      Space group of crystal =     1: P1, P 1

             Set iprint > 1 for details on symmetry rotations/translations

                         Centre of mass is constrained
             Set iprint > 1 for details of linear ionic constraints

                         Number of cell constraints= 0
                         Cell constraints are:  1 2 3 4 5 6

                         External pressure/stress (GPa)
                          0.00000   0.00000   0.00000
                                    0.00000   0.00000
                                              0.00000
 
+---------------- MEMORY AND SCRATCH DISK ESTIMATES PER PROCESS --------------+
|                                                     Memory          Disk    |
| Baseline code, static data and system overhead      591.0 MB         0.0 MB |
| BLAS internal memory storage                          0.0 MB         0.0 MB |
| Model and support data                              924.2 MB         0.0 MB |
| Electronic energy minimisation requirements         436.4 MB         0.0 MB |
| Force calculation requirements                       15.9 MB         0.0 MB |
| Stress calculation requirements                      17.2 MB         0.0 MB |
|                                               ----------------------------- |
| Approx. total storage required per process         1951.7 MB         0.0 MB |
|                                                                             |
| Requirements will fluctuate during execution and may exceed these estimates |
+-----------------------------------------------------------------------------+
Calculating finite basis set correction with  3 cut-off energies.
Calculating total energy with cut-off of  790.000 eV.
------------------------------------------------------------------------ <-- SCF
SCF loop      Energy           Fermi           Energy gain       Timer   <-- SCF
                               energy          per atom          (sec)   <-- SCF
------------------------------------------------------------------------ <-- SCF
Initial  -1.06861260E+005  0.00000000E+000                        34.25  <-- SCF
      1  -1.15675012E+005  1.19011429E+001   1.08811750E+002     224.01  <-- SCF
      2  -1.18526026E+005  9.29931649E+000   3.51977063E+001     381.69  <-- SCF
      3  -1.18686521E+005  9.08881551E+000   1.98142102E+000     542.31  <-- SCF
      4  -1.18707551E+005  8.27384601E+000   2.59632584E-001     731.42  <-- SCF
      5  -1.18694498E+005  8.49468380E+000  -1.61145987E-001     926.24  <-- SCF
      6  -1.18687506E+005  8.65159733E+000  -8.63317681E-002    1113.04  <-- SCF
      7  -1.18682877E+005  8.66649822E+000  -5.71436831E-002    1308.30  <-- SCF
      8  -1.18684142E+005  8.61509976E+000   1.56143373E-002    1496.32  <-- SCF
      9  -1.18682790E+005  8.61496062E+000  -1.66905833E-002    1672.15  <-- SCF
     10  -1.18682596E+005  8.59911192E+000  -2.39181037E-003    1855.76  <-- SCF
     11  -1.18682686E+005  8.59387278E+000   1.11615951E-003    2038.33  <-- SCF
     12  -1.18682588E+005  8.59249407E+000  -1.21259862E-003    2211.91  <-- SCF
     13  -1.18682575E+005  8.59270864E+000  -1.60562120E-004    2390.59  <-- SCF
     14  -1.18682576E+005  8.59319726E+000   1.02725575E-005    2569.43  <-- SCF
     15  -1.18682574E+005  8.59317963E+000  -2.97954187E-005    2720.34  <-- SCF
     16  -1.18682574E+005  8.59318925E+000   4.03715790E-006    2874.44  <-- SCF
     17  -1.18682574E+005  8.59327267E+000  -3.57563052E-006    3009.83  <-- SCF
     18  -1.18682574E+005  8.59326504E+000  -1.40657665E-008    3116.25  <-- SCF
     19  -1.18682574E+005  8.59326089E+000  -6.88478876E-008    3222.14  <-- SCF
------------------------------------------------------------------------ <-- SCF
 
Final energy, E             =  -118682.4653687     eV
Final free energy (E-TS)    =  -118682.5736992     eV
(energies not corrected for finite basis set)
 
NB est. 0K energy (E-0.5TS)      =  -118682.5195339     eV
 
Calculating total energy with cut-off of  795.000 eV.
------------------------------------------------------------------------ <-- SCF
SCF loop      Energy           Fermi           Energy gain       Timer   <-- SCF
                               energy          per atom          (sec)   <-- SCF
------------------------------------------------------------------------ <-- SCF
Initial  -1.18682465E+005  0.00000000E+000                      3252.94  <-- SCF
      1  -1.18682576E+005  8.59339120E+000   1.37041871E-003    3394.05  <-- SCF
      2  -1.18682577E+005  8.59338962E+000   3.80622189E-006    3540.20  <-- SCF
      3  -1.18682620E+005  8.59158297E+000   5.35033993E-004    3717.95  <-- SCF
      4  -1.18682576E+005  8.59392610E+000  -5.41928285E-004    3890.76  <-- SCF
      5  -1.18682575E+005  8.59334740E+000  -1.35476747E-005    4052.42  <-- SCF
      6  -1.18682575E+005  8.59323196E+000   2.87681314E-006    4193.79  <-- SCF
      7  -1.18682575E+005  8.59330268E+000  -4.71862223E-007    4302.35  <-- SCF
      8  -1.18682575E+005  8.59323949E+000  -1.56260900E-007    4406.40  <-- SCF
------------------------------------------------------------------------ <-- SCF
 
Final energy, E             =  -118682.4668350     eV
Final free energy (E-TS)    =  -118682.5751562     eV
(energies not corrected for finite basis set)
 
NB est. 0K energy (E-0.5TS)      =  -118682.5209956     eV
 
Calculating total energy with cut-off of  800.000 eV.
------------------------------------------------------------------------ <-- SCF
SCF loop      Energy           Fermi           Energy gain       Timer   <-- SCF
                               energy          per atom          (sec)   <-- SCF
------------------------------------------------------------------------ <-- SCF
Initial  -1.18682467E+005  0.00000000E+000                      4436.78  <-- SCF
      1  -1.18682584E+005  8.59318335E+000   1.44744915E-003    4602.82  <-- SCF
      2  -1.18682584E+005  8.59318060E+000   2.93030589E-006    4744.85  <-- SCF
      3  -1.18682758E+005  8.59209025E+000   2.14505391E-003    4927.29  <-- SCF
      4  -1.18682575E+005  8.59481176E+000  -2.25732041E-003    5104.06  <-- SCF
      5  -1.18682576E+005  8.59329333E+000   1.52670173E-005    5268.96  <-- SCF
      6  -1.18682577E+005  8.59330880E+000   8.37108252E-006    5428.20  <-- SCF
      7  -1.18682577E+005  8.59320733E+000  -4.40557735E-006    5565.44  <-- SCF
      8  -1.18682577E+005  8.59319695E+000  -1.64342391E-007    5674.31  <-- SCF
      9  -1.18682577E+005  8.59321761E+000  -1.13638597E-007    5780.69  <-- SCF
------------------------------------------------------------------------ <-- SCF
 
Final energy, E             =  -118682.4682183     eV
Final free energy (E-TS)    =  -118682.5765522     eV
(energies not corrected for finite basis set)
 
NB est. 0K energy (E-0.5TS)      =  -118682.5223852     eV
 
 For future reference: finite basis dEtot/dlog(Ecut) =      -0.225941eV
 Total energy corrected for finite basis set = -118682.576543 eV

 ************************** Forces **************************
 *                                                          *
 *               Cartesian components (eV/A)                *
 * -------------------------------------------------------- *
 *                         x            y            z      *
 *                                                          *
 * Al              1      0.02329      0.03029      0.01403 *
 * Al              2     -0.20235     -0.06698      0.10422 *
 * Al              3      0.09520     -0.01104     -0.02213 *
 * Al              4      0.03213      0.04848     -0.00115 *
 * Al              5     -0.04446      0.01857     -0.04202 *
 * Al              6     -0.06844      0.06067     -0.02311 *
 * Al              7     -0.14470     -0.14821      0.12454 *
 * Al              8      0.01652      0.04058      0.04549 *
 * Ti              1      0.04580     -0.07701      0.02449 *
 * Ti              2     -0.11549      0.04746      0.02337 *
 * Ti              3      0.06182     -0.04807     -0.01221 *
 * Ti              4     -0.08034      0.03451     -0.03208 *
 * Ti              5     -0.01270      0.02010     -0.03876 *
 * Ti              6      0.05877     -0.01833     -0.03674 *
 * Ti              7     -0.04995      0.08015      0.00295 *
 * Ti              8      0.06605     -0.01076     -0.00446 *
 * Ti              9      0.03717     -0.03961     -0.04084 *
 * Ti             10      0.00130      0.03748      0.01040 *
 * Ti             11      0.07382     -0.05961     -0.04267 *
 * Ti             12     -0.06214      0.01437     -0.00592 *
 * Ti             13     -0.00900      0.01344      0.00628 *
 * Ti             14      0.06274     -0.02413     -0.06824 *
 * Ti             15     -0.01087     -0.02107      0.03680 *
 * Ti             16      0.06886      0.02268      0.01391 *
 * Ti             17      0.02177      0.02512     -0.06835 *
 * Ti             18     -0.09438      0.00802     -0.11892 *
 * Ti             19     -0.08752      0.03191      0.03406 *
 * Ti             20      0.12081     -0.02045     -0.00404 *
 * Ti             21      0.04045     -0.01963     -0.00965 *
 * Ti             22     -0.02052      0.02638     -0.01569 *
 * Ti             23      0.02975      0.00550     -0.01607 *
 * Ti             24     -0.00015     -0.00597      0.09282 *
 * Ti             25     -0.01055     -0.08918     -0.00963 *
 * Ti             26      0.00711     -0.06952      0.04277 *
 * Ti             27     -0.08666      0.06752      0.05956 *
 * Ti             28      0.01534     -0.09354      0.01303 *
 * Ti             29      0.01598      0.05458      0.07916 *
 * Ti             30     -0.01920      0.06989     -0.05185 *
 * Ti             31     -0.11878     -0.08994     -0.11865 *
 * Ti             32      0.02735     -0.02536      0.04322 *
 * Ti             33     -0.09463     -0.22673     -0.01156 *
 * Ti             34      0.00706      0.04360     -0.10710 *
 * Ti             35      0.02395      0.12736      0.13796 *
 * Ti             36     -0.12750      0.01896      0.22239 *
 * Ti             37      0.02707     -0.00324     -0.06712 *
 * Ti             38      0.06829      0.15254     -0.03969 *
 * Ti             39      0.08942     -0.05570      0.11920 *
 * Ti             40     -0.03829      0.12950     -0.01692 *
 * Ti             41      0.01119     -0.06476      0.05052 *
 * Ti             42      0.01151      0.04874     -0.06344 *
 * Ti             43     -0.04270     -0.09360     -0.01362 *
 * Ti             44      0.08615      0.03809      0.00316 *
 * Ti             45      0.03891      0.05095     -0.01035 *
 * Ti             46      0.00090     -0.02806     -0.06397 *
 * Ti             47      0.00557      0.04930      0.03359 *
 * Ti             48      0.06579     -0.01216     -0.03206 *
 * Ti             49     -0.04091     -0.01128     -0.01596 *
 * Ti             50      0.07313      0.02882     -0.06770 *
 * Ti             51      0.05550     -0.14534     -0.05612 *
 * Ti             52     -0.02141     -0.04490     -0.02641 *
 * Ti             53     -0.04510     -0.00449      0.00396 *
 * Ti             54     -0.04355     -0.01896      0.03444 *
 * Ti             55      0.03675      0.09477      0.03188 *
 * Ti             56      0.17629      0.00179      0.28640 *
 * Ti             57     -0.06083      0.02915     -0.10169 *
 * Ti             58      0.02875      0.16464      0.06046 *
 * Ti             59      0.14075     -0.12191     -0.09590 *
 * Ti             60     -0.05147      0.01438     -0.04650 *
 * Ti             61     -0.14216      0.08757     -0.01645 *
 * Ti             62     -0.04320     -0.00542     -0.02285 *
 * Ti             63     -0.12117     -0.03539     -0.03198 *
 * Ti             64     -0.00556      0.01086      0.03845 *
 * Ti             65     -0.01036      0.04259     -0.08196 *
 * Ti             66     -0.10122     -0.04473     -0.05892 *
 * Ti             67      0.05193     -0.00267     -0.04822 *
 * Ti             68     -0.04274      0.03122     -0.12726 *
 * Ti             69     -0.12242     -0.06980      0.01866 *
 * Ti             70      0.04376      0.01488     -0.12247 *
 * V               1     -0.06160      0.02410      0.03046 *
 * V               2      0.14731      0.18060      0.07680 *
 * V               3      0.34298     -0.21453      0.20997 *
 *                                                          *
 ************************************************************

 ***************** Stress Tensor *****************
 *                                               *
 *          Cartesian components (GPa)           *
 * --------------------------------------------- *
 *             x             y             z     *
 *                                               *
 *  x     -0.623092      0.040454     -0.216334  *
 *  y      0.040454     -0.543595      0.271224  *
 *  z     -0.216334      0.271224     -2.355685  *
 *                                               *
 *  Pressure:    1.1741                          *
 *                                               *
 *************************************************

 Pseudo atomic calculation performed for Al 3s2 3p1

 Converged in 15 iterations to a total energy of -107.1308 eV

 Pseudo atomic calculation performed for Ti 3s2 3p6 3d2 4s2

 Converged in 34 iterations to a total energy of -1587.0236 eV

 Pseudo atomic calculation performed for V 3s2 3p6 3d3 4s2

 Converged in 35 iterations to a total energy of -2065.7874 eV
Charge spilling parameter for spin component 1 = 0.08%

            Orbital Populations       
     Ion    Atom   Orbital             Charge
  -------------------------------------------
     Al     1      S                    0.908
     Al     1      Px                   0.682
     Al     1      Py                   0.666
     Al     1      Pz                   0.679
     Al     2      S                    0.952
     Al     2      Px                   0.698
     Al     2      Py                   0.723
     Al     2      Pz                   0.676
     Al     3      S                    0.958
     Al     3      Px                   0.740
     Al     3      Py                   0.747
     Al     3      Pz                   0.637
     Al     4      S                    0.961
     Al     4      Px                   0.739
     Al     4      Py                   0.723
     Al     4      Pz                   0.641
     Al     5      S                    0.933
     Al     5      Px                   0.637
     Al     5      Py                   0.663
     Al     5      Pz                   0.699
     Al     6      S                    0.966
     Al     6      Px                   0.695
     Al     6      Py                   0.717
     Al     6      Pz                   0.676
     Al     7      S                    0.968
     Al     7      Px                   0.670
     Al     7      Py                   0.717
     Al     7      Pz                   0.694
     Al     8      S                    0.946
     Al     8      Px                   0.724
     Al     8      Py                   0.710
     Al     8      Pz                   0.668
     Ti     1      S                    2.001
     Ti     1      Px                   2.003
     Ti     1      Py                   2.003
     Ti     1      Pz                   2.005
     Ti     1      S                    0.311
     Ti     1      Dzz                  0.488
     Ti     1      Dzy                  0.619
     Ti     1      Dzx                  0.633
     Ti     1      Dxx-yy               0.452
     Ti     1      Dxy                  0.447
     Ti     1      Px                   0.339
     Ti     1      Py                   0.353
     Ti     1      Pz                   0.306
     Ti     2      S                    2.005
     Ti     2      Px                   2.008
     Ti     2      Py                   2.008
     Ti     2      Pz                   2.007
     Ti     2      S                    0.263
     Ti     2      Dzz                  0.597
     Ti     2      Dzy                  0.512
     Ti     2      Dzx                  0.506
     Ti     2      Dxx-yy               0.596
     Ti     2      Dxy                  0.593
     Ti     2      Px                   0.294
     Ti     2      Py                   0.304
     Ti     2      Pz                   0.334
     Ti     3      S                    2.005
     Ti     3      Px                   2.007
     Ti     3      Py                   2.007
     Ti     3      Pz                   2.006
     Ti     3      S                    0.268
     Ti     3      Dzz                  0.602
     Ti     3      Dzy                  0.503
     Ti     3      Dzx                  0.494
     Ti     3      Dxx-yy               0.601
     Ti     3      Dxy                  0.596
     Ti     3      Px                   0.301
     Ti     3      Py                   0.316
     Ti     3      Pz                   0.325
     Ti     4      S                    2.005
     Ti     4      Px                   2.008
     Ti     4      Py                   2.008
     Ti     4      Pz                   2.007
     Ti     4      S                    0.256
     Ti     4      Dzz                  0.603
     Ti     4      Dzy                  0.508
     Ti     4      Dzx                  0.500
     Ti     4      Dxx-yy               0.595
     Ti     4      Dxy                  0.599
     Ti     4      Px                   0.292
     Ti     4      Py                   0.305
     Ti     4      Pz                   0.326
     Ti     5      S                    2.005
     Ti     5      Px                   2.007
     Ti     5      Py                   2.007
     Ti     5      Pz                   2.006
     Ti     5      S                    0.270
     Ti     5      Dzz                  0.602
     Ti     5      Dzy                  0.499
     Ti     5      Dzx                  0.494
     Ti     5      Dxx-yy               0.602
     Ti     5      Dxy                  0.598
     Ti     5      Px                   0.304
     Ti     5      Py                   0.317
     Ti     5      Pz                   0.325
     Ti     6      S                    2.001
     Ti     6      Px                   2.003
     Ti     6      Py                   2.003
     Ti     6      Pz                   2.005
     Ti     6      S                    0.309
     Ti     6      Dzz                  0.483
     Ti     6      Dzy                  0.623
     Ti     6      Dzx                  0.645
     Ti     6      Dxx-yy               0.448
     Ti     6      Dxy                  0.438
     Ti     6      Px                   0.333
     Ti     6      Py                   0.350
     Ti     6      Pz                   0.307
     Ti     7      S                    2.005
     Ti     7      Px                   2.008
     Ti     7      Py                   2.007
     Ti     7      Pz                   2.007
     Ti     7      S                    0.251
     Ti     7      Dzz                  0.583
     Ti     7      Dzy                  0.503
     Ti     7      Dzx                  0.507
     Ti     7      Dxx-yy               0.598
     Ti     7      Dxy                  0.605
     Ti     7      Px                   0.315
     Ti     7      Py                   0.319
     Ti     7      Pz                   0.341
     Ti     8      S                    2.004
     Ti     8      Px                   2.007
     Ti     8      Py                   2.007
     Ti     8      Pz                   2.006
     Ti     8      S                    0.256
     Ti     8      Dzz                  0.593
     Ti     8      Dzy                  0.505
     Ti     8      Dzx                  0.505
     Ti     8      Dxx-yy               0.591
     Ti     8      Dxy                  0.589
     Ti     8      Px                   0.323
     Ti     8      Py                   0.325
     Ti     8      Pz                   0.336
     Ti     9      S                    2.001
     Ti     9      Px                   2.004
     Ti     9      Py                   2.003
     Ti     9      Pz                   2.005
     Ti     9      S                    0.294
     Ti     9      Dzz                  0.498
     Ti     9      Dzy                  0.586
     Ti     9      Dzx                  0.609
     Ti     9      Dxx-yy               0.471
     Ti     9      Dxy                  0.458
     Ti     9      Px                   0.356
     Ti     9      Py                   0.348
     Ti     9      Pz                   0.336
     Ti    10      S                    2.005
     Ti    10      Px                   2.007
     Ti    10      Py                   2.007
     Ti    10      Pz                   2.007
     Ti    10      S                    0.255
     Ti    10      Dzz                  0.582
     Ti    10      Dzy                  0.519
     Ti    10      Dzx                  0.515
     Ti    10      Dxx-yy               0.608
     Ti    10      Dxy                  0.586
     Ti    10      Px                   0.281
     Ti    10      Py                   0.302
     Ti    10      Pz                   0.334
     Ti    11      S                    2.005
     Ti    11      Px                   2.007
     Ti    11      Py                   2.008
     Ti    11      Pz                   2.007
     Ti    11      S                    0.269
     Ti    11      Dzz                  0.607
     Ti    11      Dzy                  0.500
     Ti    11      Dzx                  0.486
     Ti    11      Dxx-yy               0.591
     Ti    11      Dxy                  0.610
     Ti    11      Px                   0.323
     Ti    11      Py                   0.304
     Ti    11      Pz                   0.322
     Ti    12      S                    2.001
     Ti    12      Px                   2.003
     Ti    12      Py                   2.003
     Ti    12      Pz                   2.005
     Ti    12      S                    0.291
     Ti    12      Dzz                  0.506
     Ti    12      Dzy                  0.610
     Ti    12      Dzx                  0.593
     Ti    12      Dxx-yy               0.446
     Ti    12      Dxy                  0.467
     Ti    12      Px                   0.348
     Ti    12      Py                   0.348
     Ti    12      Pz                   0.341
     Ti    13      S                    2.004
     Ti    13      Px                   2.007
     Ti    13      Py                   2.007
     Ti    13      Pz                   2.006
     Ti    13      S                    0.246
     Ti    13      Dzz                  0.577
     Ti    13      Dzy                  0.507
     Ti    13      Dzx                  0.511
     Ti    13      Dxx-yy               0.601
     Ti    13      Dxy                  0.602
     Ti    13      Px                   0.324
     Ti    13      Py                   0.315
     Ti    13      Pz                   0.340
     Ti    14      S                    2.005
     Ti    14      Px                   2.007
     Ti    14      Py                   2.007
     Ti    14      Pz                   2.006
     Ti    14      S                    0.260
     Ti    14      Dzz                  0.597
     Ti    14      Dzy                  0.508
     Ti    14      Dzx                  0.486
     Ti    14      Dxx-yy               0.589
     Ti    14      Dxy                  0.606
     Ti    14      Px                   0.332
     Ti    14      Py                   0.315
     Ti    14      Pz                   0.332
     Ti    15      S                    2.000
     Ti    15      Px                   2.003
     Ti    15      Py                   2.003
     Ti    15      Pz                   2.004
     Ti    15      S                    0.300
     Ti    15      Dzz                  0.495
     Ti    15      Dzy                  0.607
     Ti    15      Dzx                  0.608
     Ti    15      Dxx-yy               0.465
     Ti    15      Dxy                  0.444
     Ti    15      Px                   0.353
     Ti    15      Py                   0.348
     Ti    15      Pz                   0.338
     Ti    16      S                    2.004
     Ti    16      Px                   2.006
     Ti    16      Py                   2.007
     Ti    16      Pz                   2.006
     Ti    16      S                    0.261
     Ti    16      Dzz                  0.615
     Ti    16      Dzy                  0.500
     Ti    16      Dzx                  0.489
     Ti    16      Dxx-yy               0.587
     Ti    16      Dxy                  0.593
     Ti    16      Px                   0.313
     Ti    16      Py                   0.314
     Ti    16      Pz                   0.320
     Ti    17      S                    2.005
     Ti    17      Px                   2.007
     Ti    17      Py                   2.007
     Ti    17      Pz                   2.006
     Ti    17      S                    0.271
     Ti    17      Dzz                  0.614
     Ti    17      Dzy                  0.510
     Ti    17      Dzx                  0.489
     Ti    17      Dxx-yy               0.587
     Ti    17      Dxy                  0.586
     Ti    17      Px                   0.310
     Ti    17      Py                   0.314
     Ti    17      Pz                   0.325
     Ti    18      S                    2.001
     Ti    18      Px                   2.003
     Ti    18      Py                   2.003
     Ti    18      Pz                   2.004
     Ti    18      S                    0.297
     Ti    18      Dzz                  0.494
     Ti    18      Dzy                  0.609
     Ti    18      Dzx                  0.594
     Ti    18      Dxx-yy               0.461
     Ti    18      Dxy                  0.471
     Ti    18      Px                   0.357
     Ti    18      Py                   0.347
     Ti    18      Pz                   0.341
     Ti    19      S                    2.005
     Ti    19      Px                   2.007
     Ti    19      Py                   2.007
     Ti    19      Pz                   2.006
     Ti    19      S                    0.259
     Ti    19      Dzz                  0.585
     Ti    19      Dzy                  0.505
     Ti    19      Dzx                  0.511
     Ti    19      Dxx-yy               0.601
     Ti    19      Dxy                  0.602
     Ti    19      Px                   0.306
     Ti    19      Py                   0.292
     Ti    19      Pz                   0.336
     Ti    20      S                    2.005
     Ti    20      Px                   2.007
     Ti    20      Py                   2.007
     Ti    20      Pz                   2.007
     Ti    20      S                    0.260
     Ti    20      Dzz                  0.589
     Ti    20      Dzy                  0.504
     Ti    20      Dzx                  0.510
     Ti    20      Dxx-yy               0.595
     Ti    20      Dxy                  0.603
     Ti    20      Px                   0.300
     Ti    20      Py                   0.293
     Ti    20      Pz                   0.335
     Ti    21      S                    2.000
     Ti    21      Px                   2.003
     Ti    21      Py                   2.003
     Ti    21      Pz                   2.004
     Ti    21      S                    0.300
     Ti    21      Dzz                  0.512
     Ti    21      Dzy                  0.605
     Ti    21      Dzx                  0.593
     Ti    21      Dxx-yy               0.447
     Ti    21      Dxy                  0.462
     Ti    21      Px                   0.356
     Ti    21      Py                   0.348
     Ti    21      Pz                   0.332
     Ti    22      S                    2.004
     Ti    22      Px                   2.007
     Ti    22      Py                   2.007
     Ti    22      Pz                   2.006
     Ti    22      S                    0.255
     Ti    22      Dzz                  0.596
     Ti    22      Dzy                  0.503
     Ti    22      Dzx                  0.512
     Ti    22      Dxx-yy               0.592
     Ti    22      Dxy                  0.601
     Ti    22      Px                   0.310
     Ti    22      Py                   0.292
     Ti    22      Pz                   0.333
     Ti    23      S                    2.004
     Ti    23      Px                   2.007
     Ti    23      Py                   2.007
     Ti    23      Pz                   2.006
     Ti    23      S                    0.251
     Ti    23      Dzz                  0.574
     Ti    23      Dzy                  0.513
     Ti    23      Dzx                  0.505
     Ti    23      Dxx-yy               0.599
     Ti    23      Dxy                  0.595
     Ti    23      Px                   0.304
     Ti    23      Py                   0.319
     Ti    23      Pz                   0.345
     Ti    24      S                    2.000
     Ti    24      Px                   2.003
     Ti    24      Py                   2.003
     Ti    24      Pz                   2.004
     Ti    24      S                    0.301
     Ti    24      Dzz                  0.490
     Ti    24      Dzy                  0.621
     Ti    24      Dzx                  0.603
     Ti    24      Dxx-yy               0.441
     Ti    24      Dxy                  0.467
     Ti    24      Px                   0.351
     Ti    24      Py                   0.350
     Ti    24      Pz                   0.342
     Ti    25      S                    2.004
     Ti    25      Px                   2.006
     Ti    25      Py                   2.007
     Ti    25      Pz                   2.006
     Ti    25      S                    0.252
     Ti    25      Dzz                  0.591
     Ti    25      Dzy                  0.499
     Ti    25      Dzx                  0.499
     Ti    25      Dxx-yy               0.603
     Ti    25      Dxy                  0.589
     Ti    25      Px                   0.328
     Ti    25      Py                   0.328
     Ti    25      Pz                   0.336
     Ti    26      S                    2.004
     Ti    26      Px                   2.007
     Ti    26      Py                   2.006
     Ti    26      Pz                   2.005
     Ti    26      S                    0.254
     Ti    26      Dzz                  0.616
     Ti    26      Dzy                  0.487
     Ti    26      Dzx                  0.511
     Ti    26      Dxx-yy               0.571
     Ti    26      Dxy                  0.600
     Ti    26      Px                   0.287
     Ti    26      Py                   0.287
     Ti    26      Pz                   0.341
     Ti    27      S                    2.000
     Ti    27      Px                   2.003
     Ti    27      Py                   2.004
     Ti    27      Pz                   2.004
     Ti    27      S                    0.307
     Ti    27      Dzz                  0.495
     Ti    27      Dzy                  0.611
     Ti    27      Dzx                  0.595
     Ti    27      Dxx-yy               0.445
     Ti    27      Dxy                  0.489
     Ti    27      Px                   0.341
     Ti    27      Py                   0.324
     Ti    27      Pz                   0.329
     Ti    28      S                    2.003
     Ti    28      Px                   2.005
     Ti    28      Py                   2.005
     Ti    28      Pz                   2.006
     Ti    28      S                    0.274
     Ti    28      Dzz                  0.579
     Ti    28      Dzy                  0.516
     Ti    28      Dzx                  0.545
     Ti    28      Dxx-yy               0.511
     Ti    28      Dxy                  0.560
     Ti    28      Px                   0.311
     Ti    28      Py                   0.322
     Ti    28      Pz                   0.347
     Ti    29      S                    2.003
     Ti    29      Px                   2.006
     Ti    29      Py                   2.006
     Ti    29      Pz                   2.005
     Ti    29      S                    0.281
     Ti    29      Dzz                  0.572
     Ti    29      Dzy                  0.471
     Ti    29      Dzx                  0.491
     Ti    29      Dxx-yy               0.617
     Ti    29      Dxy                  0.602
     Ti    29      Px                   0.337
     Ti    29      Py                   0.333
     Ti    29      Pz                   0.268
     Ti    30      S                    2.000
     Ti    30      Px                   2.003
     Ti    30      Py                   2.003
     Ti    30      Pz                   2.004
     Ti    30      S                    0.297
     Ti    30      Dzz                  0.502
     Ti    30      Dzy                  0.605
     Ti    30      Dzx                  0.577
     Ti    30      Dxx-yy               0.461
     Ti    30      Dxy                  0.466
     Ti    30      Px                   0.370
     Ti    30      Py                   0.361
     Ti    30      Pz                   0.330
     Ti    31      S                    2.003
     Ti    31      Px                   2.005
     Ti    31      Py                   2.005
     Ti    31      Pz                   2.005
     Ti    31      S                    0.265
     Ti    31      Dzz                  0.558
     Ti    31      Dzy                  0.495
     Ti    31      Dzx                  0.564
     Ti    31      Dxx-yy               0.545
     Ti    31      Dxy                  0.548
     Ti    31      Px                   0.308
     Ti    31      Py                   0.304
     Ti    31      Pz                   0.348
     Ti    32      S                    2.000
     Ti    32      Px                   2.003
     Ti    32      Py                   2.003
     Ti    32      Pz                   2.004
     Ti    32      S                    0.308
     Ti    32      Dzz                  0.516
     Ti    32      Dzy                  0.604
     Ti    32      Dzx                  0.600
     Ti    32      Dxx-yy               0.440
     Ti    32      Dxy                  0.479
     Ti    32      Px                   0.336
     Ti    32      Py                   0.316
     Ti    32      Pz                   0.332
     Ti    33      S                    2.003
     Ti    33      Px                   2.006
     Ti    33      Py                   2.006
     Ti    33      Pz                   2.005
     Ti    33      S                    0.269
     Ti    33      Dzz                  0.595
     Ti    33      Dzy                  0.493
     Ti    33      Dzx                  0.530
     Ti    33      Dxx-yy               0.541
     Ti    33      Dxy                  0.583
     Ti    33      Px                   0.303
     Ti    33      Py                   0.276
     Ti    33      Pz                   0.354
     Ti    34      S                    2.002
     Ti    34      Px                   2.005
     Ti    34      Py                   2.004
     Ti    34      Pz                   2.005
     Ti    34      S                    0.293
     Ti    34      Dzz                  0.525
     Ti    34      Dzy                  0.596
     Ti    34      Dzx                  0.571
     Ti    34      Dxx-yy               0.487
     Ti    34      Dxy                  0.482
     Ti    34      Px                   0.306
     Ti    34      Py                   0.345
     Ti    34      Pz                   0.335
     Ti    35      S                    2.003
     Ti    35      Px                   2.006
     Ti    35      Py                   2.005
     Ti    35      Pz                   2.005
     Ti    35      S                    0.280
     Ti    35      Dzz                  0.604
     Ti    35      Dzy                  0.548
     Ti    35      Dzx                  0.515
     Ti    35      Dxx-yy               0.549
     Ti    35      Dxy                  0.529
     Ti    35      Px                   0.304
     Ti    35      Py                   0.262
     Ti    35      Pz                   0.343
     Ti    36      S                    2.004
     Ti    36      Px                   2.007
     Ti    36      Py                   2.007
     Ti    36      Pz                   2.006
     Ti    36      S                    0.323
     Ti    36      Dzz                  0.580
     Ti    36      Dzy                  0.486
     Ti    36      Dzx                  0.487
     Ti    36      Dxx-yy               0.604
     Ti    36      Dxy                  0.616
     Ti    36      Px                   0.377
     Ti    36      Py                   0.376
     Ti    36      Pz                   0.240
     Ti    37      S                    2.002
     Ti    37      Px                   2.005
     Ti    37      Py                   2.005
     Ti    37      Pz                   2.006
     Ti    37      S                    0.289
     Ti    37      Dzz                  0.512
     Ti    37      Dzy                  0.591
     Ti    37      Dzx                  0.567
     Ti    37      Dxx-yy               0.520
     Ti    37      Dxy                  0.453
     Ti    37      Px                   0.342
     Ti    37      Py                   0.338
     Ti    37      Pz                   0.324
     Ti    38      S                    2.003
     Ti    38      Px                   2.005
     Ti    38      Py                   2.005
     Ti    38      Pz                   2.006
     Ti    38      S                    0.265
     Ti    38      Dzz                  0.565
     Ti    38      Dzy                  0.560
     Ti    38      Dzx                  0.505
     Ti    38      Dxx-yy               0.589
     Ti    38      Dxy                  0.500
     Ti    38      Px                   0.324
     Ti    38      Py                   0.307
     Ti    38      Pz                   0.338
     Ti    39      S                    2.002
     Ti    39      Px                   2.006
     Ti    39      Py                   2.005
     Ti    39      Pz                   2.005
     Ti    39      S                    0.298
     Ti    39      Dzz                  0.542
     Ti    39      Dzy                  0.606
     Ti    39      Dzx                  0.561
     Ti    39      Dxx-yy               0.494
     Ti    39      Dxy                  0.467
     Ti    39      Px                   0.302
     Ti    39      Py                   0.345
     Ti    39      Pz                   0.332
     Ti    40      S                    2.003
     Ti    40      Px                   2.005
     Ti    40      Py                   2.005
     Ti    40      Pz                   2.005
     Ti    40      S                    0.281
     Ti    40      Dzz                  0.583
     Ti    40      Dzy                  0.523
     Ti    40      Dzx                  0.519
     Ti    40      Dxx-yy               0.570
     Ti    40      Dxy                  0.529
     Ti    40      Px                   0.333
     Ti    40      Py                   0.262
     Ti    40      Pz                   0.333
     Ti    41      S                    2.003
     Ti    41      Px                   2.006
     Ti    41      Py                   2.007
     Ti    41      Pz                   2.006
     Ti    41      S                    0.276
     Ti    41      Dzz                  0.593
     Ti    41      Dzy                  0.508
     Ti    41      Dzx                  0.516
     Ti    41      Dxx-yy               0.601
     Ti    41      Dxy                  0.577
     Ti    41      Px                   0.310
     Ti    41      Py                   0.296
     Ti    41      Pz                   0.300
     Ti    42      S                    2.001
     Ti    42      Px                   2.003
     Ti    42      Py                   2.003
     Ti    42      Pz                   2.005
     Ti    42      S                    0.318
     Ti    42      Dzz                  0.488
     Ti    42      Dzy                  0.608
     Ti    42      Dzx                  0.633
     Ti    42      Dxx-yy               0.464
     Ti    42      Dxy                  0.448
     Ti    42      Px                   0.330
     Ti    42      Py                   0.374
     Ti    42      Pz                   0.312
     Ti    43      S                    2.003
     Ti    43      Px                   2.005
     Ti    43      Py                   2.006
     Ti    43      Pz                   2.005
     Ti    43      S                    0.283
     Ti    43      Dzz                  0.589
     Ti    43      Dzy                  0.502
     Ti    43      Dzx                  0.482
     Ti    43      Dxx-yy               0.566
     Ti    43      Dxy                  0.611
     Ti    43      Px                   0.338
     Ti    43      Py                   0.330
     Ti    43      Pz                   0.277
     Ti    44      S                    2.004
     Ti    44      Px                   2.006
     Ti    44      Py                   2.007
     Ti    44      Pz                   2.006
     Ti    44      S                    0.288
     Ti    44      Dzz                  0.587
     Ti    44      Dzy                  0.500
     Ti    44      Dzx                  0.486
     Ti    44      Dxx-yy               0.583
     Ti    44      Dxy                  0.594
     Ti    44      Px                   0.357
     Ti    44      Py                   0.333
     Ti    44      Pz                   0.290
     Ti    45      S                    2.000
     Ti    45      Px                   2.003
     Ti    45      Py                   2.003
     Ti    45      Pz                   2.004
     Ti    45      S                    0.321
     Ti    45      Dzz                  0.481
     Ti    45      Dzy                  0.623
     Ti    45      Dzx                  0.618
     Ti    45      Dxx-yy               0.464
     Ti    45      Dxy                  0.450
     Ti    45      Px                   0.329
     Ti    45      Py                   0.359
     Ti    45      Pz                   0.314
     Ti    46      S                    2.004
     Ti    46      Px                   2.007
     Ti    46      Py                   2.007
     Ti    46      Pz                   2.005
     Ti    46      S                    0.272
     Ti    46      Dzz                  0.633
     Ti    46      Dzy                  0.509
     Ti    46      Dzx                  0.479
     Ti    46      Dxx-yy               0.600
     Ti    46      Dxy                  0.585
     Ti    46      Px                   0.317
     Ti    46      Py                   0.290
     Ti    46      Pz                   0.296
     Ti    47      S                    2.001
     Ti    47      Px                   2.004
     Ti    47      Py                   2.004
     Ti    47      Pz                   2.005
     Ti    47      S                    0.301
     Ti    47      Dzz                  0.519
     Ti    47      Dzy                  0.581
     Ti    47      Dzx                  0.600
     Ti    47      Dxx-yy               0.474
     Ti    47      Dxy                  0.486
     Ti    47      Px                   0.324
     Ti    47      Py                   0.284
     Ti    47      Pz                   0.313
     Ti    48      S                    2.005
     Ti    48      Px                   2.008
     Ti    48      Py                   2.008
     Ti    48      Pz                   2.007
     Ti    48      S                    0.246
     Ti    48      Dzz                  0.577
     Ti    48      Dzy                  0.533
     Ti    48      Dzx                  0.504
     Ti    48      Dxx-yy               0.596
     Ti    48      Dxy                  0.584
     Ti    48      Px                   0.316
     Ti    48      Py                   0.305
     Ti    48      Pz                   0.351
     Ti    49      S                    2.005
     Ti    49      Px                   2.007
     Ti    49      Py                   2.007
     Ti    49      Pz                   2.007
     Ti    49      S                    0.243
     Ti    49      Dzz                  0.583
     Ti    49      Dzy                  0.505
     Ti    49      Dzx                  0.512
     Ti    49      Dxx-yy               0.594
     Ti    49      Dxy                  0.612
     Ti    49      Px                   0.310
     Ti    49      Py                   0.289
     Ti    49      Pz                   0.333
     Ti    50      S                    2.000
     Ti    50      Px                   2.003
     Ti    50      Py                   2.002
     Ti    50      Pz                   2.004
     Ti    50      S                    0.298
     Ti    50      Dzz                  0.506
     Ti    50      Dzy                  0.583
     Ti    50      Dzx                  0.608
     Ti    50      Dxx-yy               0.468
     Ti    50      Dxy                  0.451
     Ti    50      Px                   0.329
     Ti    50      Py                   0.364
     Ti    50      Pz                   0.331
     Ti    51      S                    2.004
     Ti    51      Px                   2.006
     Ti    51      Py                   2.008
     Ti    51      Pz                   2.006
     Ti    51      S                    0.262
     Ti    51      Dzz                  0.588
     Ti    51      Dzy                  0.521
     Ti    51      Dzx                  0.465
     Ti    51      Dxx-yy               0.575
     Ti    51      Dxy                  0.622
     Ti    51      Px                   0.317
     Ti    51      Py                   0.298
     Ti    51      Pz                   0.333
     Ti    52      S                    2.005
     Ti    52      Px                   2.008
     Ti    52      Py                   2.006
     Ti    52      Pz                   2.007
     Ti    52      S                    0.252
     Ti    52      Dzz                  0.586
     Ti    52      Dzy                  0.504
     Ti    52      Dzx                  0.511
     Ti    52      Dxx-yy               0.595
     Ti    52      Dxy                  0.603
     Ti    52      Px                   0.311
     Ti    52      Py                   0.292
     Ti    52      Pz                   0.341
     Ti    53      S                    2.001
     Ti    53      Px                   2.003
     Ti    53      Py                   2.004
     Ti    53      Pz                   2.005
     Ti    53      S                    0.304
     Ti    53      Dzz                  0.514
     Ti    53      Dzy                  0.593
     Ti    53      Dzx                  0.611
     Ti    53      Dxx-yy               0.464
     Ti    53      Dxy                  0.474
     Ti    53      Px                   0.346
     Ti    53      Py                   0.284
     Ti    53      Pz                   0.330
     Ti    54      S                    2.005
     Ti    54      Px                   2.008
     Ti    54      Py                   2.007
     Ti    54      Pz                   2.006
     Ti    54      S                    0.250
     Ti    54      Dzz                  0.586
     Ti    54      Dzy                  0.514
     Ti    54      Dzx                  0.481
     Ti    54      Dxx-yy               0.605
     Ti    54      Dxy                  0.602
     Ti    54      Px                   0.302
     Ti    54      Py                   0.320
     Ti    54      Pz                   0.345
     Ti    55      S                    2.004
     Ti    55      Px                   2.008
     Ti    55      Py                   2.007
     Ti    55      Pz                   2.006
     Ti    55      S                    0.231
     Ti    55      Dzz                  0.597
     Ti    55      Dzy                  0.502
     Ti    55      Dzx                  0.492
     Ti    55      Dxx-yy               0.594
     Ti    55      Dxy                  0.614
     Ti    55      Px                   0.299
     Ti    55      Py                   0.310
     Ti    55      Pz                   0.354
     Ti    56      S                    2.002
     Ti    56      Px                   2.005
     Ti    56      Py                   2.004
     Ti    56      Pz                   2.004
     Ti    56      S                    0.271
     Ti    56      Dzz                  0.562
     Ti    56      Dzy                  0.522
     Ti    56      Dzx                  0.518
     Ti    56      Dxx-yy               0.528
     Ti    56      Dxy                  0.570
     Ti    56      Px                   0.308
     Ti    56      Py                   0.306
     Ti    56      Pz                   0.344
     Ti    57      S                    2.005
     Ti    57      Px                   2.007
     Ti    57      Py                   2.008
     Ti    57      Pz                   2.007
     Ti    57      S                    0.269
     Ti    57      Dzz                  0.575
     Ti    57      Dzy                  0.520
     Ti    57      Dzx                  0.504
     Ti    57      Dxx-yy               0.591
     Ti    57      Dxy                  0.603
     Ti    57      Px                   0.321
     Ti    57      Py                   0.313
     Ti    57      Pz                   0.342
     Ti    58      S                    2.002
     Ti    58      Px                   2.004
     Ti    58      Py                   2.005
     Ti    58      Pz                   2.005
     Ti    58      S                    0.284
     Ti    58      Dzz                  0.526
     Ti    58      Dzy                  0.529
     Ti    58      Dzx                  0.588
     Ti    58      Dxx-yy               0.444
     Ti    58      Dxy                  0.546
     Ti    58      Px                   0.364
     Ti    58      Py                   0.320
     Ti    58      Pz                   0.336
     Ti    59      S                    2.003
     Ti    59      Px                   2.005
     Ti    59      Py                   2.005
     Ti    59      Pz                   2.005
     Ti    59      S                    0.263
     Ti    59      Dzz                  0.580
     Ti    59      Dzy                  0.505
     Ti    59      Dzx                  0.538
     Ti    59      Dxx-yy               0.535
     Ti    59      Dxy                  0.565
     Ti    59      Px                   0.302
     Ti    59      Py                   0.314
     Ti    59      Pz                   0.342
     Ti    60      S                    2.004
     Ti    60      Px                   2.007
     Ti    60      Py                   2.007
     Ti    60      Pz                   2.006
     Ti    60      S                    0.266
     Ti    60      Dzz                  0.599
     Ti    60      Dzy                  0.487
     Ti    60      Dzx                  0.502
     Ti    60      Dxx-yy               0.592
     Ti    60      Dxy                  0.599
     Ti    60      Px                   0.317
     Ti    60      Py                   0.322
     Ti    60      Pz                   0.331
     Ti    61      S                    2.002
     Ti    61      Px                   2.005
     Ti    61      Py                   2.006
     Ti    61      Pz                   2.005
     Ti    61      S                    0.285
     Ti    61      Dzz                  0.552
     Ti    61      Dzy                  0.511
     Ti    61      Dzx                  0.597
     Ti    61      Dxx-yy               0.471
     Ti    61      Dxy                  0.541
     Ti    61      Px                   0.336
     Ti    61      Py                   0.278
     Ti    61      Pz                   0.342
     Ti    62      S                    2.004
     Ti    62      Px                   2.007
     Ti    62      Py                   2.005
     Ti    62      Pz                   2.006
     Ti    62      S                    0.269
     Ti    62      Dzz                  0.611
     Ti    62      Dzy                  0.493
     Ti    62      Dzx                  0.498
     Ti    62      Dxx-yy               0.615
     Ti    62      Dxy                  0.537
     Ti    62      Px                   0.316
     Ti    62      Py                   0.336
     Ti    62      Pz                   0.322
     Ti    63      S                    2.002
     Ti    63      Px                   2.005
     Ti    63      Py                   2.005
     Ti    63      Pz                   2.005
     Ti    63      S                    0.295
     Ti    63      Dzz                  0.515
     Ti    63      Dzy                  0.594
     Ti    63      Dzx                  0.561
     Ti    63      Dxx-yy               0.505
     Ti    63      Dxy                  0.500
     Ti    63      Px                   0.293
     Ti    63      Py                   0.326
     Ti    63      Pz                   0.336
     Ti    64      S                    2.004
[...]
             Ti 9  -- Ti 15                  0.43        2.77405
              Al 4 -- Ti 33                  0.27        2.77472
             Ti 37 -- Ti 39                  0.33        2.77509
             Ti 1  -- Ti 6                   0.40        2.77539
              Al 3 -- V 3                    0.25        2.77729
             Ti 42 -- Ti 45                  0.39        2.77932
              Al 7 -- Ti 43                  0.26        2.78057
             Ti 38 -- Ti 40                  0.15        2.78066
             Ti 14 -- Ti 17                  0.10        2.78132
             Ti 19 -- Ti 22                  0.06        2.78232
             Ti 47 -- Ti 53                  0.33        2.78378
              Al 3 -- Ti 38                  0.25        2.78527
             Ti 29 -- V 1                    0.16        2.78572
              Al 2 -- Ti 61                  0.25        2.78580
             Ti 35 -- Ti 36                  0.16        2.78585
             Ti 56 -- V 3                    0.21        2.78639
             Ti 18 -- Ti 24                  0.42        2.78675
             Ti 30 -- Ti 32                  0.35        2.78691
             Ti 36 -- Ti 66                  0.20        2.78696
             Ti 2  -- Ti 7                   0.09        2.78836
             Ti 3  -- Ti 8                   0.06        2.78885
             Ti 10 -- Ti 13                  0.07        2.78983
             Ti 61 -- V 2                    0.34        2.78985
             Ti 48 -- Ti 51                  0.06        2.79013
             Ti 66 -- Ti 69                  0.32        2.79040
             Ti 27 -- Ti 30                  0.40        2.79045
             Ti 11 -- Ti 17                  0.05        2.79067
             Ti 18 -- Ti 21                  0.37        2.79133
             Ti 13 -- Ti 16                  0.07        2.79421
             Ti 22 -- Ti 25                  0.06        2.79436
             Ti 4  -- Ti 7                   0.09        2.79438
              Al 4 -- Ti 34                  0.32        2.79451
             Ti 3  -- Ti 5                   0.05        2.79543
              Al 5 -- Ti 45                  0.45        2.79590
             Ti 5  -- Ti 8                   0.06        2.79615
             Ti 50 -- Ti 53                  0.40        2.79661
             Ti 2  -- Ti 4                   0.05        2.79775
             Ti 10 -- Ti 16                  0.05        2.79785
             Ti 35 -- Ti 38                  0.24        2.79941
             Ti 12 -- Ti 15                  0.39        2.79982
             Ti 35 -- Ti 40                  0.17        2.80038
             Ti 58 -- V 1                    0.16        2.80090
             Ti 47 -- Ti 50                  0.37        2.80114
              Al 1 -- Ti 1                   0.36        2.80176
              Al 1 -- Ti 6                   0.36        2.80298
             Ti 27 -- Ti 32                  0.35        2.80351
             Ti 21 -- Ti 24                  0.38        2.80355
             Ti 28 -- Ti 33                  0.19        2.80375
             Ti 19 -- Ti 25                  0.06        2.80395
              Al 5 -- Ti 42                  0.38        2.80581
             Ti 65 -- Ti 70                  0.12        2.80602
             Ti 9  -- Ti 12                  0.36        2.80708
             Ti 11 -- Ti 14                  0.09        2.80891
             Ti 52 -- Ti 55                  0.04        2.81015
             Ti 68 -- Ti 70                  0.09        2.81055
             Ti 23 -- Ti 26                  0.12        2.81104
             Ti 69 -- V 3                    0.15        2.81246
             Ti 49 -- Ti 55                  0.05        2.81352
             Ti 28 -- Ti 36                  0.14        2.81433
             Ti 20 -- Ti 26                  0.08        2.81654
             Ti 36 -- Ti 37                  0.20        2.81787
             Ti 57 -- Ti 60                  0.11        2.81834
             Ti 63 -- Ti 69                  0.29        2.81905
              Al 4 -- Ti 56                  0.19        2.81930
              Al 3 -- Ti 31                  0.23        2.82075
             Ti 54 -- V 2                    0.19        2.82174
              Al 4 -- Ti 36                  0.22        2.82329
             Ti 36 -- Ti 59                  0.20        2.82856
             Ti 60 -- Ti 62                  0.09        2.82970
             Ti 31 -- Ti 33                  0.18        2.83142
              Al 3 -- Ti 40                  0.26        2.83237
             Ti 48 -- Ti 58                  0.10        2.83762
             Ti 30 -- V 1                    0.20        2.83779
             Ti 51 -- Ti 54                  0.12        2.84045
             Ti 64 -- Ti 66                  0.15        2.84136
             Ti 34 -- Ti 39                  0.36        2.84174
             Ti 65 -- Ti 66                  0.15        2.84264
              Al 3 -- Ti 59                  0.19        2.85720
             Ti 61 -- Ti 62                  0.02        2.85958
             Ti 61 -- V 3                    0.15        2.86296
             Ti 42 -- Ti 44                  0.21        2.86434
             Ti 2  -- Ti 37                  0.16        2.86536
              Al 3 -- Ti 36                  0.19        2.86942
             Ti 67 -- Ti 69                  0.16        2.87012
             Ti 64 -- Ti 67                  0.08        2.87030
              Al 7 -- Ti 27                  0.24        2.87212
             Ti 41 -- Ti 43                  0.07        2.87277
             Ti 63 -- Ti 70                  0.07        2.87319
             Ti 58 -- Ti 61                  0.30        2.87346
             Ti 32 -- Ti 43                  0.12        2.87372
             Ti 62 -- V 2                    0.07        2.87567
              Al 4 -- Ti 40                  0.24        2.87914
              Al 7 -- Ti 47                  0.23        2.87988
             Ti 36 -- Ti 38                  0.17        2.88021
             Ti 11 -- Ti 37                  0.14        2.88067
             Ti 4  -- Ti 39                  0.12        2.88197
             Ti 44 -- Ti 66                  0.15        2.88273
             Ti 53 -- Ti 67                  0.16        2.88399
             Ti 51 -- Ti 58                  0.10        2.88601
              Al 8 -- Ti 63                  0.23        2.88645
             Ti 28 -- V 2                    0.16        2.88685
             Ti 21 -- Ti 65                  0.18        2.89196
              Al 3 -- Ti 33                  0.21        2.89364
             Ti 48 -- V 2                    0.14        2.89509
             Ti 18 -- Ti 62                  0.13        2.89709
              Al 6 -- Ti 66                  0.21        2.89948
             Ti 4  -- Ti 37                  0.14        2.89982
             Ti 7  -- Ti 39                  0.14        2.90013
              Al 2 -- V 2                    0.20        2.90159
             Ti 14 -- Ti 39                  0.12        2.90186
             Ti 11 -- Ti 34                  0.14        2.90275
             Ti 1  -- Ti 64                  0.14        2.90319
              Al 6 -- Ti 63                  0.21        2.90324
             Ti 66 -- Ti 67                  0.13        2.90441
             Ti 51 -- Ti 61                  0.11        2.90464
             Ti 36 -- Ti 56                  0.16        2.90488
             Ti 6  -- Ti 67                  0.12        2.90490
             Ti 44 -- Ti 50                  0.15        2.90574
             Ti 31 -- Ti 36                  0.14        2.90598
             Ti 44 -- Ti 46                  0.11        2.90642
             Ti 24 -- Ti 68                  0.12        2.90684
              Al 2 -- Ti 32                  0.24        2.90877
              Al 4 -- Ti 28                  0.17        2.90887
             Ti 34 -- Ti 35                  0.11        2.91046
             Ti 33 -- V 2                    0.14        2.91096
             Ti 27 -- Ti 29                  0.15        2.91419
             Ti 3  -- Ti 37                  0.14        2.91527
              Al 8 -- Ti 69                  0.22        2.91625
             Ti 5  -- Ti 39                  0.11        2.91756
              Al 2 -- Ti 29                  0.24        2.91792
             Ti 2  -- Ti 34                  0.11        2.91855
             Ti 5  -- Ti 37                  0.12        2.92003
             Ti 46 -- Ti 53                  0.13        2.92005
             Ti 68 -- Ti 69                  0.07        2.92013
             Ti 43 -- Ti 53                  0.11        2.92052
              Al 2 -- Ti 53                  0.24        2.92142
             Ti 24 -- Ti 70                  0.12        2.92302
             Ti 33 -- Ti 61                  0.10        2.92406
             Ti 29 -- Ti 47                  0.14        2.92456
             Ti 18 -- Ti 70                  0.10        2.92482
             Ti 9  -- Ti 57                  0.10        2.92655
             Ti 57 -- Ti 58                  0.13        2.92700
             Ti 21 -- Ti 68                  0.15        2.92703
              Al 6 -- Ti 47                  0.22        2.92814
             Ti 7  -- Ti 34                  0.12        2.92944
             Ti 66 -- Ti 68                  0.18        2.92999
             Ti 9  -- Ti 54                  0.14        2.93016
             Ti 8  -- Ti 39                  0.12        2.93060
             Ti 60 -- Ti 61                  0.13        2.93136
             Ti 9  -- Ti 17                  0.14        2.93229
             Ti 45 -- Ti 46                  0.16        2.93246
              Al 1 -- Ti 64                  0.17        2.93354
              Al 8 -- Ti 1                   0.20        2.93511
             Ti 56 -- Ti 59                  0.22        2.93515
             Ti 16 -- Ti 18                  0.14        2.93589
             Ti 17 -- Ti 34                  0.13        2.93600
             Ti 18 -- Ti 20                  0.13        2.93615
             Ti 4  -- Ti 12                  0.13        2.93798
             Ti 35 -- Ti 63                  0.13        2.93862
             Ti 12 -- Ti 52                  0.10        2.93887
             Ti 3  -- Ti 30                  0.15        2.94036
              Al 8 -- Ti 53                  0.18        2.94047
              Al 5 -- Ti 46                  0.21        2.94139
             Ti 41 -- Ti 42                  0.14        2.94185
              Al 8 -- Ti 47                  0.18        2.94196
             Ti 3  -- Ti 34                  0.11        2.94222
             Ti 6  -- Ti 25                  0.11        2.94260
             Ti 37 -- Ti 38                  0.09        2.94330
             Ti 17 -- Ti 39                  0.09        2.94366
             Ti 24 -- Ti 60                  0.12        2.94418
             Ti 63 -- Ti 64                  0.11        2.94519
             Ti 9  -- Ti 10                  0.11        2.94526
             Ti 24 -- Ti 62                  0.13        2.94527
             Ti 12 -- Ti 57                  0.14        2.94560
             Ti 15 -- Ti 54                  0.12        2.94568
              Al 5 -- Ti 17                  0.16        2.94572
             Ti 56 -- V 2                    0.15        2.94619
              Al 8 -- Ti 6                   0.20        2.94704
             Ti 69 -- Ti 70                  0.05        2.94711
             Ti 46 -- Ti 47                  0.12        2.94715
              Al 5 -- Al 6                   0.20        2.94816
             Ti 59 -- Ti 61                  0.12        2.94865
             Ti 15 -- Ti 16                  0.12        2.94893
             Ti 46 -- Ti 69                  0.12        2.94954
             Ti 15 -- Ti 60                  0.13        2.94974
             Ti 28 -- Ti 58                  0.06        2.95090
             Ti 8  -- Ti 27                  0.10        2.95131
             Ti 46 -- Ti 63                  0.14        2.95136
             Ti 28 -- Ti 34                  0.12        2.95240
             Ti 14 -- Ti 37                  0.12        2.95294
             Ti 8  -- Ti 34                  0.10        2.95297
             Ti 56 -- Ti 63                  0.12        2.95385
             Ti 9  -- Ti 16                  0.12        2.95461
             Ti 47 -- Ti 64                  0.09        2.95503
             Ti 31 -- Ti 37                  0.12        2.95599
             Ti 39 -- Ti 40                  0.12        2.95667
             Ti 21 -- Ti 57                  0.15        2.95717
             Ti 5  -- Ti 32                  0.14        2.95749
             Ti 44 -- Ti 45                  0.13        2.95806
             Ti 26 -- Ti 27                  0.15        2.95922
             Ti 30 -- Ti 41                  0.10        2.95932
             Ti 6  -- Ti 7                   0.09        2.95953
             Ti 10 -- Ti 42                  0.09        2.96159
             Ti 40 -- Ti 69                  0.11        2.96161
             Ti 1  -- Ti 7                   0.10        2.96184
             Ti 58 -- Ti 59                  0.15        2.96217
             Ti 63 -- Ti 65                  0.06        2.96239
             Ti 52 -- Ti 53                  0.12        2.96331
              Al 6 -- Ti 50                  0.15        2.96357
             Ti 8  -- Ti 32                  0.11        2.96415
             Ti 43 -- Ti 50                  0.09        2.96439
              Al 7 -- Ti 53                  0.14        2.96467
             Ti 14 -- Ti 45                  0.13        2.96479
             Ti 1  -- Ti 25                  0.13        2.96498
             Ti 31 -- Ti 58                  0.06        2.96500
             Ti 22 -- Ti 32                  0.12        2.96575
             Ti 59 -- Ti 66                  0.13        2.96601
              Al 5 -- Ti 11                  0.17        2.96632
             Ti 38 -- Ti 39                  0.11        2.96645
             Ti 14 -- Ti 42                  0.16        2.96688
             Ti 5  -- Ti 30                  0.15        2.96700
              Al 5 -- Ti 10                  0.14        2.96712
             Ti 44 -- Ti 69                  0.09        2.96791
             Ti 12 -- Ti 14                  0.10        2.96806
             Ti 12 -- Ti 13                  0.11        2.96820
             Ti 11 -- Ti 42                  0.13        2.96878
             Ti 12 -- Ti 48                  0.10        2.96912
              Al 1 -- Ti 5                   0.17        2.96912
              Al 1 -- Ti 4                   0.15        2.96963
              Al 1 -- Ti 67                  0.15        2.96990
             Ti 18 -- Ti 56                  0.13        2.97024
             Ti 51 -- Ti 53                  0.12        2.97041
             Ti 15 -- Ti 55                  0.14        2.97056
              Al 1 -- Ti 2                   0.14        2.97064
             Ti 29 -- Ti 58                  0.05        2.97064
             Ti 47 -- Ti 55                  0.07        2.97203
             Ti 63 -- V 3                    0.16        2.97240
             Ti 15 -- Ti 17                  0.10        2.97327
             Ti 2  -- Ti 12                  0.12        2.97350
             Ti 31 -- Ti 61                  0.07        2.97387
             Ti 1  -- Ti 19                  0.12        2.97430
             Ti 27 -- Ti 41                  0.16        2.97435
             Ti 16 -- Ti 24                  0.13        2.97437
             Ti 2  -- Ti 9                   0.09        2.97455
             Ti 9  -- Ti 11                  0.13        2.97478
             Ti 21 -- Ti 60                  0.14        2.97541
              Al 1 -- Ti 22                  0.15        2.97665
             Ti 58 -- Ti 60                  0.14        2.97676
             Ti 43 -- Ti 45                  0.20        2.97706
             Ti 6  -- Ti 68                  0.10        2.97807
              Al 1 -- Ti 65                  0.16        2.97810
             Ti 41 -- Ti 50                  0.12        2.97848
             Ti 19 -- Ti 27                  0.10        2.97890
              Al 4 -- Ti 35                  0.17        2.98005
             Ti 3  -- Ti 27                  0.13        2.98011
              Al 1 -- Ti 19                  0.15        2.98012
             Ti 53 -- Ti 55                  0.04        2.98022
             Ti 12 -- Ti 49                  0.12        2.98114
             Ti 20 -- Ti 21                  0.09        2.98273
             Ti 15 -- Ti 52                  0.08        2.98297
             Ti 26 -- Ti 45                  0.10        2.98305
             Ti 1  -- Ti 2                   0.12        2.98318
              Al 5 -- Ti 41                  0.15        2.98467
             Ti 47 -- Ti 49                  0.08        2.98520
             Ti 38 -- Ti 69                  0.12        2.98530
             Ti 4  -- Ti 6                   0.11        2.98558
             Ti 10 -- Ti 12                  0.10        2.98576
             Ti 18 -- Ti 57                  0.12        2.98604
             Ti 13 -- Ti 42                  0.12        2.98630
             Ti 19 -- Ti 30                  0.13        2.98660
             Ti 23 -- Ti 42                  0.11        2.98720
              Al 7 -- Ti 32                  0.17        2.98743
             Ti 11 -- Ti 12                  0.09        2.98760
             Ti 34 -- Ti 40                  0.12        2.98953
             Ti 50 -- Ti 64                  0.12        2.99042
             Ti 13 -- Ti 15                  0.11        2.99067
             Ti 24 -- Ti 25                  0.14        2.99117
              Al 1 -- Ti 3                   0.15        2.99159
             Ti 26 -- Ti 32                  0.14        2.99218
             Ti 6  -- Ti 55                  0.12        2.99258
             Ti 18 -- Ti 65                  0.11        2.99280
             Ti 18 -- Ti 25                  0.12        2.99320
             Ti 4  -- Ti 15                  0.11        2.99338
             Ti 59 -- Ti 69                  0.11        2.99396
             Ti 7  -- Ti 9                   0.11        2.99477
             Ti 22 -- Ti 30                  0.11        2.99492
             Ti 12 -- Ti 60                  0.11        2.99534
             Ti 14 -- Ti 15                  0.10        2.99613
             Ti 23 -- Ti 45                  0.10        2.99629
             Ti 50 -- Ti 52                  0.14        2.99634
             Ti 1  -- Ti 3                   0.12        2.99661
             Ti 50 -- Ti 51                  0.09        2.99671
             Ti 25 -- Ti 27                  0.08        2.99700
             Ti 47 -- Ti 54                  0.13        2.99792
             Ti 48 -- Ti 50                  0.08        2.99834
              Al 1 -- Ti 68                  0.13        2.99840
             Ti 28 -- Ti 37                  0.13        2.99907
             Ti 18 -- Ti 19                  0.09        2.99912
             Ti 1  -- Ti 55                  0.11        2.99936
======================================================================

 
 A BibTeX formatted list of references used in this run has been written to 
 sqs_hex_sc3x3x3_Ti70Al8V3_frame0_01.bib
 
Initialisation time =     23.73 s
Calculation time    =   6266.15 s
Finalisation time   =      0.42 s
Total time          =   6290.29 s
Peak Memory Use     = 2610848 kB
 
Overall parallel efficiency rating: Mediocre (57%)
 
Data was distributed by:-
G-vector (16-way); efficiency rating: Mediocre (59%)
k-point (15-way); efficiency rating: Excellent (95%)
