 +-------------------------------------------------+
 |                                                 |
 |      CCC   AA    SSS  TTTTT  EEEEE  PPPP        |
 |     C     A  A  S       T    E      P   P       |
 |     C     AAAA   SS     T    EEE    PPPP        |
 |     C     A  A     S    T    E      P           |
 |      CCC  A  A  SSS     T    EEEEE  P           |
 |                                                 |
 +-------------------------------------------------+
 |                                                 |
 | Welcome to Academic Release CASTEP version 24.1 |
 | Ab Initio Total Energy Program                  |
 |                                                 |
 | Authors:                                        |
 | M. Segall, M. Probert, C. Pickard, P. Hasnip,   |
 | S. Clark, K. Refson, J. R. Yates,               |
 | A. Bartok-Partay, M. Payne                      |
 |                                                 |
 | Contributors:                                   |
 | P. Lindan, P. Haynes, J. White, V. Milman,      |
 | N. Govind, M. Gibson, P. Tulip, V. Cocula,      |
 | B. Montanari, D. Quigley, M. Glover,            |
 | L. Bernasconi, A. Perlov, M. Plummer,           |
 | E. McNellis, J. Meyer, J. Gale, D. Jochym       |
 | J. Aarons, B. Walker, R. Gillen, D. Jones       |
 | T. Green, I. J. Bush, C. J. Armstrong,          |
 | E. J. Higgins, E. L. Brown, M. S. McFly,        |
 | J. Wilkins, B-C. Shih, P. J. P. Byrne,          |
 | R. J. Maurer, J. C. Womack, J. Dziedzic,        |
 | L. LeBlanc, T. K. Stenczel, J. Kermode,         |
 | S. Sturniolo, B. Shi, B. Durham, M. Evans,      |
 | M. J. Smith, A. Tamerus, Z. Hawkhead,           |
 | V. Ravindran, T. Hollins, S. A. Joyce,          |
 | R. T. Strong, A. M. Reilly                      |
 |                                                 |
 | Copyright (c) 2000 - 2023                       |
 |                                                 |
 |     Distributed under license from Cambridge    |
 |     Enterprise for academic use only.           |
 |                                                 |
 | Please cite                                     |
 |                                                 |
 |     "First principles methods using CASTEP"     |
 |                                                 |
 |         Zeitschrift fuer Kristallographie       |
 |           220(5-6) pp. 567-570 (2005)           |
 |                                                 |
 | S. J. Clark, M. D. Segall, C. J. Pickard,       |
 | P. J. Hasnip, M. J. Probert, K. Refson,         |
 | M. C. Payne                                     |
 |                                                 |
 |       in all publications arising from          |
 |              your use of CASTEP                 |
 |                                                 |
 +-------------------------------------------------+
 |                                                 |
 |              http://www.castep.org              |
 |                                                 |
 +-------------------------------------------------+



 Compiled for linux_x86_64_gfortran10 on Tue, 02 May 2023 15:31:46 +0100
 from code version db08e394c+  default  Mon May 1 16:40:39 2023 +0100
 Compiler: GNU Fortran 10.2.0; Optimisation: fast
 Comms   : Open MPI v4.0.5
 MATHLIBS: openblas (LAPACK version 3.9.0)
 FFT Lib : fftw3 version fftw-3.3.8-sse2-avx-avx2-avx2_128
 Fundamental constants values: CODATA 2018

 Run started: Wed, 07 Feb 2024 15:12:30 +0000

 Atomic calculation performed for Al: 1s2 2s2 2p6 3s2 3p1

 Converged in 54 iterations to an ae energy of -6603.783 eV

   ============================================================                
   | Pseudopotential Report - Date of generation  7-02-2024   |                
   ------------------------------------------------------------                
   | Element: Al Ionic charge:  3.00 Level of theory: PBE     |                
   | Atomic Solver: Koelling-Harmon                           |                
   |                                                          |                
   |               Reference Electronic Structure             |                
   |         Orbital         Occupation         Energy        |                
   |            3s              2.000           -0.285        |                
   |            3p              1.000           -0.100        |                
   |                                                          |                
   |                 Pseudopotential Definition               |                
   |        Beta     l      e      Rc     scheme   norm       |                
   |          1      0   -0.285   2.192     qc      0         |                
   |          2      0    0.250   2.192     qc      0         |                
   |          3      1   -0.100   2.192     qc      0         |                
   |          4      1    0.250   2.192     qc      0         |                
   |          5      2    0.000   2.000     qc      0         |                
   |          6      2    0.250   2.000     qc      0         |                
   |         loc     3    0.000   2.192     pn      0         |                
   |                                                          |                
   | Augmentation charge Rinner = 1.398                       |                
   | Partial core correction Rc = 1.398                       |                
   ------------------------------------------------------------                
   | "3|2.2|2.2|1.4|4|5|5|30:31:32U2U2"                       |                
   ------------------------------------------------------------                
   |      Author: Chris J. Pickard, Cambridge University      |                
   ============================================================                

 Atomic calculation performed for Ti: 1s2 2s2 2p6 3s2 3p6 3d2 4s2

 Converged in 79 iterations to an ae energy of -23226.658 eV

   ============================================================                
   | Pseudopotential Report - Date of generation  7-02-2024   |                
   ------------------------------------------------------------                
   | Element: Ti Ionic charge: 12.00 Level of theory: PBE     |                
   | Atomic Solver: Koelling-Harmon                           |                
   |                                                          |                
   |               Reference Electronic Structure             |                
   |         Orbital         Occupation         Energy        |                
   |            3s              2.000           -2.302        |                
   |            3p              6.000           -1.428        |                
   |            4s              2.000           -0.164        |                
   |            3d              2.000           -0.157        |                
   |                                                          |                
   |                 Pseudopotential Definition               |                
   |        Beta     l      e      Rc     scheme   norm       |                
   |          1      0   -2.302   1.793     qc      0         |                
   |          2      0   -0.164   1.793     qc      0         |                
   |          3      0    0.250   1.793     qc      0         |                
   |          4      1   -1.428   1.793     qc      0         |                
   |          5      1    0.250   1.793     qc      0         |                
   |          6      2   -0.157   1.793     qc      0         |                
   |          7      2    0.250   1.793     qc      0         |                
   |         loc     3    0.000   1.793     pn      0         |                
   |                                                          |                
   | Augmentation charge Rinner = 1.263                       |                
   | Partial core correction Rc = 1.263                       |                
   ------------------------------------------------------------                
   | "3|1.8|9|10|11|30U:40:31:32(qc=5.5)"                     |                
   ------------------------------------------------------------                
   |      Author: Chris J. Pickard, Cambridge University      |                
   ============================================================                

 Atomic calculation performed for V: 1s2 2s2 2p6 3s2 3p6 3d3 4s2

 Converged in 81 iterations to an ae energy of -25823.733 eV

   ============================================================                
   | Pseudopotential Report - Date of generation  7-02-2024   |                
   ------------------------------------------------------------                
   | Element: V Ionic charge: 13.00 Level of theory: PBE      |                
   | Atomic Solver: Koelling-Harmon                           |                
   |                                                          |                
   |               Reference Electronic Structure             |                
   |         Orbital         Occupation         Energy        |                
   |            3s              2.000           -2.581        |                
   |            3p              6.000           -1.618        |                
   |            3d              3.000           -0.190        |                
   |            4s              2.000           -0.173        |                
   |                                                          |                
   |                 Pseudopotential Definition               |                
   |        Beta     l      e      Rc     scheme   norm       |                
   |          1      0   -2.581   1.803     qc      0         |                
   |          2      0   -0.173   1.803     qc      0         |                
   |          3      0    0.250   1.803     qc      0         |                
   |          4      1   -1.618   1.803     qc      0         |                
   |          5      1    0.250   1.803     qc      0         |                
   |          6      2   -0.190   1.803     qc      0         |                
   |          7      2    0.250   1.803     qc      0         |                
   |         loc     3    0.000   1.803     pn      0         |                
   |                                                          |                
   | Augmentation charge Rinner = 0.600                       |                
   | Partial core correction Rc = 0.600                       |                
   ------------------------------------------------------------                
   | "3|1.8|1.8|0.6|12|14|16|30U:40:31:32(qc=7)"              |                
   ------------------------------------------------------------                
   |      Author: Chris J. Pickard, Cambridge University      |                
   ============================================================                

 Pseudo atomic calculation performed for Al 3s2 3p1

 Converged in 15 iterations to a total energy of -107.1308 eV

 Pseudo atomic calculation performed for Ti 3s2 3p6 3d2 4s2

 Converged in 34 iterations to a total energy of -1587.0236 eV

 Pseudo atomic calculation performed for V 3s2 3p6 3d3 4s2

 Converged in 35 iterations to a total energy of -2065.7874 eV
 Calculation parallelised over 336 processes.
 Data is distributed by G-vector(24-way) and k-point(14-way)

 ************************************ Title ************************************
 

 ***************************** General Parameters ******************************
  
 output verbosity                               : normal  (1)
 write checkpoint data to                       : sqs_hcp_sc3x3x3_Ti46Al6V2_frame0_06.check
 type of calculation                            : single point energy
 stress calculation                             : on
 density difference calculation                 : off
 electron localisation func (ELF) calculation   : off
 Hirshfeld analysis                             : off
 polarisation (Berry phase) analysis            : off
 molecular orbital projected DOS                : off
 deltaSCF calculation                           : off
 unlimited duration calculation
 timing information                             : on
 memory usage estimate                          : on
 write extra output files                       : on
 write final potential to formatted file        : off
 write final density to formatted file          : off
 write BibTeX reference list                    : on
 write OTFG pseudopotential files               : on
 write electrostatic potential file             : on
 write bands file                               : on
 checkpoint writing                             : off
  
 output         length unit                     : A
 output           mass unit                     : amu
 output           time unit                     : ps
 output         charge unit                     : e
 output           spin unit                     : hbar/2
 output         energy unit                     : eV
 output          force unit                     : eV/A
 output       velocity unit                     : A/ps
 output       pressure unit                     : GPa
 output     inv_length unit                     : 1/A
 output      frequency unit                     : cm-1
 output force constant unit                     : eV/A**2
 output         volume unit                     : A**3
 output   IR intensity unit                     : (D/A)**2/amu
 output         dipole unit                     : D
 output         efield unit                     : eV/A/e
 output        entropy unit                     : J/mol/K
 output    efield chi2 unit                     : pm/V
  
 wavefunctions paging                           : none
 random number generator seed                   :  151230848
 data distribution                              : k-point only
 optimization strategy                          : maximize speed(+++)

 *********************** Exchange-Correlation Parameters ***********************
  
 using functional                               : Perdew Burke Ernzerhof
 relativistic treatment                         : Koelling-Harmon
 DFT+D: Semi-empirical dispersion correction    : off

 ************************* Pseudopotential Parameters **************************
  
 pseudopotential representation                 : reciprocal space
 <beta|phi> representation                      : reciprocal space
 spin-orbit coupling                            : off

 **************************** Basis Set Parameters *****************************
  
 plane wave basis set cut-off                   :   800.0000   eV
 size of standard grid                          :     2.0000
 size of   fine   gmax                          :    28.9810   1/A
 largest prime factor in FFT                    :          5
 finite basis set correction                    : automatic
 number of sample energies                      :          3
           sample  spacing                      :     5.0000   eV

 **************************** Electronic Parameters ****************************
  
 number of  electrons                           :  596.0    
 net charge of system                           :  0.000    
 treating system as non-spin-polarized
 number of bands                                :        333

 ********************* Electronic Minimization Parameters **********************
  
 Method: Treating system as metallic with density mixing treatment of electrons,
         and number of  SD  steps               :          1
         and number of  CG  steps               :          4
  
 total energy / atom convergence tol.           : 0.1000E-05   eV
 eigen-energy convergence tolerance             : 0.1622E-06   eV
 max force / atom convergence tol.              : ignored
 convergence tolerance window                   :          3   cycles
 max. number of SCF cycles                      :         30
 number of fixed-spin iterations                :         10
 smearing scheme                                : Gaussian
 smearing width                                 : 0.5000E-01   eV
 Fermi energy convergence tolerance             : 0.2721E-13   eV
 periodic dipole correction                     : NONE

 ************************** Density Mixing Parameters **************************
  
 density-mixing scheme                          : Pulay
 max. length of mixing history                  :         20
 charge density mixing amplitude                : 0.8000    
 cut-off energy for mixing                      :  800.0       eV
 charge density mixing g-vector                 :  1.500       1/A

 *********************** Population Analysis Parameters ************************
  
 Population analysis with cutoff                :  3.000       A
 Population analysis output                     : summary and pdos components

 ******************************* Developer Code ********************************
  
 PARALLEL: kpoint=14 : ENDPARALLEL
 no_improve_wvfn

 *******************************************************************************
  

                           -------------------------------
                                      Unit Cell
                           -------------------------------
        Real Lattice(A)                      Reciprocal Lattice(1/A)
     4.3256690    -7.5679570     0.0378500        0.726267477  -0.415128023  -0.002072139
     4.3256690     7.5679570    -0.0377950        0.726267451   0.415128067   0.002081030
    -0.0000850    -0.0694650    13.8866850       -0.000002877   0.002261329   0.452472450

                       Lattice parameters(A)       Cell Angles
                    a =      8.717042          alpha =   90.497423
                    b =      8.717042          beta  =   89.502564
                    c =     13.886859          gamma =  120.498046

                       Current cell volume =           909.179558       A**3
                                   density =             2.711955   AMU/A**3
                                           =             4.503308     g/cm^3

                           -------------------------------
                                     Cell Contents
                           -------------------------------
                         Total number of ions in cell =   54
                      Total number of species in cell =    3
                        Max number of any one species =   46

            xxxxxxxxxxxxxxxxxxxxxxxxxxxxxxxxxxxxxxxxxxxxxxxxxxxxxxxxxxxx
            x  Element    Atom        Fractional coordinates of atoms  x
            x            Number           u          v          w      x
            x----------------------------------------------------------x
            x  Al           1         0.219996   0.444907   0.915446   x 
            x  Al           2         0.446433   0.883893   0.751022   x 
            x  Al           3         0.886441   0.111002   0.249256   x 
            x  Al           4         0.781569   0.221083   0.751621   x 
            x  Al           5         0.885394   0.445419   0.585027   x 
            x  Al           6         0.777651   0.548866   0.750608   x 
            x  Ti           1         0.103279   0.232817   0.080418   x 
            x  Ti           2         0.216155   0.108856   0.245566   x 
            x  Ti           3         0.110011   0.219632   0.413440   x 
            x  Ti           4         0.220396   0.113283   0.584501   x 
            x  Ti           5         0.109255   0.221623   0.755627   x 
            x  Ti           6         0.219503   0.114816   0.920475   x 
            x  Ti           7         0.215066   0.447222   0.246789   x 
            x  Ti           8         0.109295   0.558598   0.418778   x 
            x  Ti           9         0.222706   0.439540   0.582768   x 
            x  Ti          10         0.115625   0.554727   0.747779   x 
            x  Ti          11         0.107393   0.880274   0.081147   x 
            x  Ti          12         0.218892   0.774872   0.249152   x 
            x  Ti          13         0.113514   0.892110   0.417165   x 
            x  Ti          14         0.224863   0.783578   0.586854   x 
            x  Ti          15         0.119497   0.889742   0.754157   x 
            x  Ti          16         0.229912   0.775522   0.918082   x 
            x  Ti          17         0.447801   0.220534   0.082913   x 
            x  Ti          18         0.554973   0.109054   0.251671   x 
            x  Ti          19         0.439409   0.220787   0.414680   x 
            x  Ti          20         0.555972   0.109078   0.584947   x 
            x  Ti          21         0.445984   0.216759   0.751354   x 
            x  Ti          22         0.560802   0.103085   0.915914   x 
            x  Ti          23         0.437336   0.553747   0.080761   x 
            x  Ti          24         0.555177   0.444877   0.247306   x 
            x  Ti          25         0.444371   0.556499   0.413600   x 
            x  Ti          26         0.555187   0.443536   0.581254   x 
            x  Ti          27         0.447221   0.554440   0.750740   x 
            x  Ti          28         0.551306   0.441513   0.916646   x 
            x  Ti          29         0.439201   0.889437   0.083502   x 
            x  Ti          30         0.557427   0.783178   0.248438   x 
            x  Ti          31         0.439909   0.886969   0.420472   x 
            x  Ti          32         0.549436   0.772836   0.582393   x 
            x  Ti          33         0.553858   0.778457   0.918968   x 
            x  Ti          34         0.775398   0.217811   0.083901   x 
            x  Ti          35         0.780941   0.226238   0.419536   x 
            x  Ti          36         0.898446   0.122743   0.582247   x 
            x  Ti          37         0.781084   0.557143   0.079138   x 
            x  Ti          38         0.892695   0.446386   0.249959   x 
            x  Ti          39         0.777701   0.556095   0.418633   x 
            x  Ti          40         0.895009   0.437072   0.915384   x 
            x  Ti          41         0.785430   0.896558   0.081420   x 
            x  Ti          42         0.887957   0.781146   0.250966   x 
            x  Ti          43         0.778287   0.892939   0.418009   x 
            x  Ti          44         0.892531   0.775469   0.587315   x 
            x  Ti          45         0.775386   0.893703   0.751153   x 
            x  Ti          46         0.885543   0.776190   0.913040   x 
            x  V            1         0.116433   0.560537   0.079059   x 
            x  V            2         0.888941   0.112801   0.919001   x 
            xxxxxxxxxxxxxxxxxxxxxxxxxxxxxxxxxxxxxxxxxxxxxxxxxxxxxxxxxxxx


                         No user defined ionic velocities

                           -------------------------------
                                   Details of Species
                           -------------------------------

                               Mass of species in AMU
                                    Al   26.9815400
                                    Ti   47.8670000
                                    V   50.9415000

                          Electric Quadrupole Moment (Barn)
                                    Al    0.1466000 Isotope 27
                                    Ti    0.3020000 Isotope 47
                                    V   -0.0520000 Isotope 51

                          Files used for pseudopotentials:
                                    Al 3|2.2|2.2|1.4|4|5|5|30:31:32U2U2
                                    Ti 3|1.8|9|10|11|30U:40:31:32(qc=5.5)
                                    V 3|1.8|1.8|0.6|12|14|16|30U:40:31:32(qc=7)

                           -------------------------------
                              k-Points For BZ Sampling
                           -------------------------------
                       MP grid size for SCF calculation is  7  7  4
                            with an offset of   0.000  0.000  0.000
                       Number of kpoints used =            98

                           -------------------------------
                               Symmetry and Constraints
                           -------------------------------

                      Maximum deviation from symmetry =  0.00000         ANG

                      Number of symmetry operations   =           1
                      Number of ionic constraints     =           3
                      Point group of crystal =     1: C1, 1, 1
                      Space group of crystal =     1: P1, P 1

             Set iprint > 1 for details on symmetry rotations/translations

                         Centre of mass is constrained
             Set iprint > 1 for details of linear ionic constraints

                         Number of cell constraints= 0
                         Cell constraints are:  1 2 3 4 5 6

                         External pressure/stress (GPa)
                          0.00000   0.00000   0.00000
                                    0.00000   0.00000
                                              0.00000
 
+---------------- MEMORY AND SCRATCH DISK ESTIMATES PER PROCESS --------------+
|                                                     Memory          Disk    |
| Baseline code, static data and system overhead      591.0 MB         0.0 MB |
| BLAS internal memory storage                          0.0 MB         0.0 MB |
| Model and support data                              554.3 MB         0.0 MB |
| Electronic energy minimisation requirements         183.1 MB         0.0 MB |
| Force calculation requirements                        7.2 MB         0.0 MB |
| Stress calculation requirements                       7.7 MB         0.0 MB |
|                                               ----------------------------- |
| Approx. total storage required per process         1328.3 MB         0.0 MB |
|                                                                             |
| Requirements will fluctuate during execution and may exceed these estimates |
+-----------------------------------------------------------------------------+
Calculating finite basis set correction with  3 cut-off energies.
Calculating total energy with cut-off of  790.000 eV.
------------------------------------------------------------------------ <-- SCF
SCF loop      Energy           Fermi           Energy gain       Timer   <-- SCF
                               energy          per atom          (sec)   <-- SCF
------------------------------------------------------------------------ <-- SCF
Initial  -7.02094208E+004  0.00000000E+000                        25.69  <-- SCF
      1  -7.61367716E+004  1.17344526E+001   1.09765756E+002      88.97  <-- SCF
      2  -7.80228442E+004  9.33623904E+000   3.49272706E+001     142.18  <-- SCF
      3  -7.81364833E+004  9.07700619E+000   2.10442677E+000     197.32  <-- SCF
      4  -7.81415660E+004  8.29049814E+000   9.41242381E-002     256.19  <-- SCF
      5  -7.81422569E+004  8.46044937E+000   1.27947827E-002     321.31  <-- SCF
      6  -7.81362010E+004  8.63742567E+000  -1.12145822E-001     380.52  <-- SCF
      7  -7.81346163E+004  8.62391024E+000  -2.93474797E-002     444.81  <-- SCF
      8  -7.81346260E+004  8.57717469E+000   1.79837812E-004     504.81  <-- SCF
      9  -7.81344965E+004  8.56974469E+000  -2.39710428E-003     565.28  <-- SCF
     10  -7.81345234E+004  8.57141333E+000   4.96904398E-004     627.97  <-- SCF
     11  -7.81344418E+004  8.56933146E+000  -1.51067719E-003     686.60  <-- SCF
     12  -7.81344474E+004  8.56907609E+000   1.02915892E-004     747.84  <-- SCF
     13  -7.81344434E+004  8.56853031E+000  -7.37354992E-005     804.33  <-- SCF
     14  -7.81344436E+004  8.56865322E+000   4.62769063E-006     856.78  <-- SCF
     15  -7.81344433E+004  8.56868306E+000  -5.33405038E-006     903.37  <-- SCF
     16  -7.81344433E+004  8.56873036E+000  -4.03287792E-008     939.17  <-- SCF
     17  -7.81344433E+004  8.56872441E+000  -1.83805647E-007     973.83  <-- SCF
------------------------------------------------------------------------ <-- SCF
 
Final energy, E             =  -78134.37231290     eV
Final free energy (E-TS)    =  -78134.44332861     eV
(energies not corrected for finite basis set)
 
NB est. 0K energy (E-0.5TS)      =  -78134.40782076     eV
 
Calculating total energy with cut-off of  795.000 eV.
------------------------------------------------------------------------ <-- SCF
SCF loop      Energy           Fermi           Energy gain       Timer   <-- SCF
                               energy          per atom          (sec)   <-- SCF
------------------------------------------------------------------------ <-- SCF
Initial  -7.81343723E+004  0.00000000E+000                       984.69  <-- SCF
      1  -7.81344449E+004  8.56874084E+000   1.34549468E-003    1037.32  <-- SCF
      2  -7.81344451E+004  8.56873887E+000   2.81075092E-006    1091.08  <-- SCF
      3  -7.81344718E+004  8.56718171E+000   4.95253032E-004    1155.95  <-- SCF
      4  -7.81344456E+004  8.56937367E+000  -4.85014410E-004    1219.87  <-- SCF
      5  -7.81344442E+004  8.56883374E+000  -2.69473692E-005    1278.91  <-- SCF
      6  -7.81344443E+004  8.56865247E+000   2.27158133E-006    1330.81  <-- SCF
      7  -7.81344443E+004  8.56871887E+000  -5.26982040E-007    1371.21  <-- SCF
      8  -7.81344443E+004  8.56867152E+000  -5.96727982E-008    1409.79  <-- SCF
------------------------------------------------------------------------ <-- SCF
 
Final energy, E             =  -78134.37325952     eV
Final free energy (E-TS)    =  -78134.44427514     eV
(energies not corrected for finite basis set)
 
NB est. 0K energy (E-0.5TS)      =  -78134.40876733     eV
 
Calculating total energy with cut-off of  800.000 eV.
------------------------------------------------------------------------ <-- SCF
SCF loop      Energy           Fermi           Energy gain       Timer   <-- SCF
                               energy          per atom          (sec)   <-- SCF
------------------------------------------------------------------------ <-- SCF
Initial  -7.81343732E+004  0.00000000E+000                      1420.99  <-- SCF
      1  -7.81344491E+004  8.56907062E+000   1.40536122E-003    1482.07  <-- SCF
      2  -7.81344492E+004  8.56906912E+000   2.60752838E-006    1540.17  <-- SCF
      3  -7.81345667E+004  8.56481055E+000   2.17612878E-003    1610.77  <-- SCF
      4  -7.81344524E+004  8.57075439E+000  -2.11773713E-003    1680.20  <-- SCF
      5  -7.81344448E+004  8.56869125E+000  -1.39856192E-004    1743.35  <-- SCF
      6  -7.81344454E+004  8.56869132E+000   1.16552408E-005    1807.73  <-- SCF
      7  -7.81344452E+004  8.56875168E+000  -4.12417005E-006    1865.80  <-- SCF
      8  -7.81344451E+004  8.56869346E+000  -1.24256935E-006    1909.66  <-- SCF
      9  -7.81344451E+004  8.56869269E+000  -2.41037728E-008    1951.58  <-- SCF
     10  -7.81344451E+004  8.56868933E+000  -2.47692354E-009    1992.99  <-- SCF
------------------------------------------------------------------------ <-- SCF
 
Final energy, E             =  -78134.37414284     eV
Final free energy (E-TS)    =  -78134.44514820     eV
(energies not corrected for finite basis set)
 
NB est. 0K energy (E-0.5TS)      =  -78134.40964552     eV
 
 For future reference: finite basis dEtot/dlog(Ecut) =      -0.144557eV
 Total energy corrected for finite basis set =  -78134.445149 eV

 ************************** Forces **************************
 *                                                          *
 *               Cartesian components (eV/A)                *
 * -------------------------------------------------------- *
 *                         x            y            z      *
 *                                                          *
 * Al              1      0.04170     -0.00388      0.06702 *
 * Al              2      0.00882     -0.03759     -0.08954 *
 * Al              3      0.01466     -0.00472      0.08794 *
 * Al              4     -0.06026      0.01982     -0.06510 *
 * Al              5     -0.03616     -0.04341      0.06859 *
 * Al              6      0.05837      0.10099      0.01329 *
 * Ti              1      0.02707      0.01453     -0.03894 *
 * Ti              2      0.00800      0.06775      0.00995 *
 * Ti              3      0.01623     -0.06593     -0.01445 *
 * Ti              4     -0.02090      0.01834     -0.01067 *
 * Ti              5      0.00789     -0.09092     -0.12124 *
 * Ti              6      0.05109      0.06363      0.01054 *
 * Ti              7     -0.03209      0.03855      0.04756 *
 * Ti              8      0.00750     -0.05902     -0.04975 *
 * Ti              9      0.03987     -0.01793      0.04715 *
 * Ti             10     -0.08842     -0.01955      0.07504 *
 * Ti             11     -0.00080     -0.09076     -0.02185 *
 * Ti             12     -0.02140      0.02693      0.01832 *
 * Ti             13      0.00095      0.01115      0.02099 *
 * Ti             14      0.05165      0.02596      0.05393 *
 * Ti             15     -0.04866      0.04816     -0.02107 *
 * Ti             16     -0.06878      0.13328     -0.01583 *
 * Ti             17      0.01170      0.00322     -0.03795 *
 * Ti             18      0.03879      0.02561     -0.08210 *
 * Ti             19     -0.00455     -0.00278      0.02751 *
 * Ti             20     -0.04932      0.10606     -0.07889 *
 * Ti             21      0.00385     -0.06387      0.00414 *
 * Ti             22     -0.03177      0.19598      0.13636 *
 * Ti             23      0.01812     -0.01851     -0.06900 *
 * Ti             24     -0.02768      0.01844      0.00752 *
 * Ti             25      0.02389     -0.00576     -0.01055 *
 * Ti             26      0.02274      0.02308     -0.06397 *
 * Ti             27      0.08441     -0.03544      0.01914 *
 * Ti             28     -0.01756      0.03970      0.09454 *
 * Ti             29     -0.13097     -0.02141     -0.00423 *
 * Ti             30      0.00958      0.02038     -0.01815 *
 * Ti             31     -0.02846     -0.03876     -0.06697 *
 * Ti             32     -0.02587     -0.03259     -0.02130 *
 * Ti             33      0.07081     -0.05318     -0.01583 *
 * Ti             34      0.02142     -0.09501      0.02617 *
 * Ti             35     -0.00167     -0.05762     -0.02546 *
 * Ti             36     -0.03238     -0.02031     -0.01987 *
 * Ti             37     -0.02286     -0.03391      0.00931 *
 * Ti             38      0.01336     -0.02452     -0.11310 *
 * Ti             39      0.00391     -0.08445      0.13872 *
 * Ti             40      0.00502      0.14499     -0.01088 *
 * Ti             41     -0.06948      0.02052     -0.01119 *
 * Ti             42      0.00803      0.03295     -0.02735 *
 * Ti             43     -0.02503     -0.03534     -0.07054 *
 * Ti             44     -0.04802      0.03369     -0.05032 *
 * Ti             45     -0.05239     -0.13664     -0.02289 *
 * Ti             46      0.01994      0.01539      0.12092 *
 * V               1      0.06859      0.03019      0.31594 *
 * V               2      0.18752     -0.08549     -0.15160 *
 *                                                          *
 ************************************************************

 ***************** Stress Tensor *****************
 *                                               *
 *          Cartesian components (GPa)           *
 * --------------------------------------------- *
 *             x             y             z     *
 *                                               *
 *  x     -2.105738     -0.066617     -0.182016  *
 *  y     -0.066617     -0.583783     -0.556816  *
 *  z     -0.182016     -0.556816     -0.787339  *
 *                                               *
 *  Pressure:    1.1590                          *
 *                                               *
 *************************************************

 Pseudo atomic calculation performed for Al 3s2 3p1

 Converged in 15 iterations to a total energy of -107.1308 eV

 Pseudo atomic calculation performed for Ti 3s2 3p6 3d2 4s2

 Converged in 34 iterations to a total energy of -1587.0236 eV

 Pseudo atomic calculation performed for V 3s2 3p6 3d3 4s2

 Converged in 35 iterations to a total energy of -2065.7874 eV
Charge spilling parameter for spin component 1 = 0.09%

            Orbital Populations       
     Ion    Atom   Orbital             Charge
  -------------------------------------------
     Al     1      S                    0.922
     Al     1      Px                   0.687
     Al     1      Py                   0.688
     Al     1      Pz                   0.707
     Al     2      S                    0.941
     Al     2      Px                   0.649
     Al     2      Py                   0.707
     Al     2      Pz                   0.711
     Al     3      S                    0.930
     Al     3      Px                   0.696
     Al     3      Py                   0.688
     Al     3      Pz                   0.711
     Al     4      S                    0.959
     Al     4      Px                   0.663
     Al     4      Py                   0.683
     Al     4      Pz                   0.684
     Al     5      S                    0.955
     Al     5      Px                   0.705
     Al     5      Py                   0.703
     Al     5      Pz                   0.646
     Al     6      S                    0.960
     Al     6      Px                   0.688
     Al     6      Py                   0.656
     Al     6      Pz                   0.690
     Ti     1      S                    2.003
     Ti     1      Px                   2.006
     Ti     1      Py                   2.005
     Ti     1      Pz                   2.007
     Ti     1      S                    0.296
     Ti     1      Dzz                  0.609
     Ti     1      Dzy                  0.462
     Ti     1      Dzx                  0.515
     Ti     1      Dxx-yy               0.573
     Ti     1      Dxy                  0.572
     Ti     1      Px                   0.318
     Ti     1      Py                   0.321
     Ti     1      Pz                   0.282
     Ti     2      S                    2.003
     Ti     2      Px                   2.005
     Ti     2      Py                   2.005
     Ti     2      Pz                   2.005
     Ti     2      S                    0.309
     Ti     2      Dzz                  0.598
     Ti     2      Dzy                  0.471
     Ti     2      Dzx                  0.505
     Ti     2      Dxx-yy               0.573
     Ti     2      Dxy                  0.573
     Ti     2      Px                   0.319
     Ti     2      Py                   0.315
     Ti     2      Pz                   0.313
     Ti     3      S                    2.004
     Ti     3      Px                   2.006
     Ti     3      Py                   2.006
     Ti     3      Pz                   2.006
     Ti     3      S                    0.297
     Ti     3      Dzz                  0.614
     Ti     3      Dzy                  0.489
     Ti     3      Dzx                  0.467
     Ti     3      Dxx-yy               0.576
     Ti     3      Dxy                  0.570
     Ti     3      Px                   0.315
     Ti     3      Py                   0.331
     Ti     3      Pz                   0.298
     Ti     4      S                    2.003
     Ti     4      Px                   2.006
     Ti     4      Py                   2.006
     Ti     4      Pz                   2.006
     Ti     4      S                    0.291
     Ti     4      Dzz                  0.615
     Ti     4      Dzy                  0.485
     Ti     4      Dzx                  0.464
     Ti     4      Dxx-yy               0.580
     Ti     4      Dxy                  0.566
     Ti     4      Px                   0.324
     Ti     4      Py                   0.335
     Ti     4      Pz                   0.337
     Ti     5      S                    2.003
     Ti     5      Px                   2.006
     Ti     5      Py                   2.005
     Ti     5      Pz                   2.006
     Ti     5      S                    0.297
     Ti     5      Dzz                  0.626
     Ti     5      Dzy                  0.494
     Ti     5      Dzx                  0.467
     Ti     5      Dxx-yy               0.591
     Ti     5      Dxy                  0.536
     Ti     5      Px                   0.321
     Ti     5      Py                   0.294
     Ti     5      Pz                   0.315
     Ti     6      S                    2.003
     Ti     6      Px                   2.005
     Ti     6      Py                   2.005
     Ti     6      Pz                   2.005
     Ti     6      S                    0.306
     Ti     6      Dzz                  0.593
     Ti     6      Dzy                  0.500
     Ti     6      Dzx                  0.485
     Ti     6      Dxx-yy               0.569
     Ti     6      Dxy                  0.568
     Ti     6      Px                   0.318
     Ti     6      Py                   0.324
     Ti     6      Pz                   0.319
     Ti     7      S                    2.003
     Ti     7      Px                   2.006
     Ti     7      Py                   2.006
     Ti     7      Pz                   2.005
     Ti     7      S                    0.310
     Ti     7      Dzz                  0.590
     Ti     7      Dzy                  0.507
     Ti     7      Dzx                  0.480
     Ti     7      Dxx-yy               0.536
     Ti     7      Dxy                  0.601
     Ti     7      Px                   0.299
     Ti     7      Py                   0.341
     Ti     7      Pz                   0.328
     Ti     8      S                    2.003
     Ti     8      Px                   2.006
     Ti     8      Py                   2.006
     Ti     8      Pz                   2.006
     Ti     8      S                    0.304
     Ti     8      Dzz                  0.619
     Ti     8      Dzy                  0.460
     Ti     8      Dzx                  0.483
     Ti     8      Dxx-yy               0.575
     Ti     8      Dxy                  0.579
     Ti     8      Px                   0.320
     Ti     8      Py                   0.332
     Ti     8      Pz                   0.288
     Ti     9      S                    2.003
     Ti     9      Px                   2.006
     Ti     9      Py                   2.005
     Ti     9      Pz                   2.005
     Ti     9      S                    0.313
     Ti     9      Dzz                  0.594
     Ti     9      Dzy                  0.454
     Ti     9      Dzx                  0.524
     Ti     9      Dxx-yy               0.551
     Ti     9      Dxy                  0.578
     Ti     9      Px                   0.321
     Ti     9      Py                   0.309
     Ti     9      Pz                   0.328
     Ti    10      S                    2.003
     Ti    10      Px                   2.006
     Ti    10      Py                   2.006
     Ti    10      Pz                   2.006
     Ti    10      S                    0.330
     Ti    10      Dzz                  0.630
     Ti    10      Dzy                  0.491
     Ti    10      Dzx                  0.486
     Ti    10      Dxx-yy               0.547
     Ti    10      Dxy                  0.610
     Ti    10      Px                   0.276
     Ti    10      Py                   0.307
     Ti    10      Pz                   0.304
     Ti    11      S                    2.004
     Ti    11      Px                   2.006
     Ti    11      Py                   2.006
     Ti    11      Pz                   2.006
     Ti    11      S                    0.304
     Ti    11      Dzz                  0.600
     Ti    11      Dzy                  0.499
     Ti    11      Dzx                  0.470
     Ti    11      Dxx-yy               0.577
     Ti    11      Dxy                  0.568
     Ti    11      Px                   0.327
     Ti    11      Py                   0.341
     Ti    11      Pz                   0.318
     Ti    12      S                    2.003
     Ti    12      Px                   2.006
     Ti    12      Py                   2.006
     Ti    12      Pz                   2.006
     Ti    12      S                    0.286
     Ti    12      Dzz                  0.620
     Ti    12      Dzy                  0.459
     Ti    12      Dzx                  0.473
     Ti    12      Dxx-yy               0.580
     Ti    12      Dxy                  0.578
     Ti    12      Px                   0.327
     Ti    12      Py                   0.324
     Ti    12      Pz                   0.342
     Ti    13      S                    2.004
     Ti    13      Px                   2.006
     Ti    13      Py                   2.006
     Ti    13      Pz                   2.006
     Ti    13      S                    0.299
     Ti    13      Dzz                  0.595
     Ti    13      Dzy                  0.481
     Ti    13      Dzx                  0.479
     Ti    13      Dxx-yy               0.573
     Ti    13      Dxy                  0.570
     Ti    13      Px                   0.324
     Ti    13      Py                   0.335
     Ti    13      Pz                   0.314
     Ti    14      S                    2.003
     Ti    14      Px                   2.006
     Ti    14      Py                   2.006
     Ti    14      Pz                   2.006
     Ti    14      S                    0.314
     Ti    14      Dzz                  0.621
     Ti    14      Dzy                  0.491
     Ti    14      Dzx                  0.489
     Ti    14      Dxx-yy               0.545
     Ti    14      Dxy                  0.582
     Ti    14      Px                   0.289
     Ti    14      Py                   0.343
     Ti    14      Pz                   0.302
     Ti    15      S                    2.003
     Ti    15      Px                   2.005
     Ti    15      Py                   2.006
     Ti    15      Pz                   2.005
     Ti    15      S                    0.323
     Ti    15      Dzz                  0.586
     Ti    15      Dzy                  0.478
     Ti    15      Dzx                  0.524
     Ti    15      Dxx-yy               0.550
     Ti    15      Dxy                  0.586
     Ti    15      Px                   0.282
     Ti    15      Py                   0.323
     Ti    15      Pz                   0.331
     Ti    16      S                    2.003
     Ti    16      Px                   2.006
     Ti    16      Py                   2.006
     Ti    16      Pz                   2.006
     Ti    16      S                    0.296
     Ti    16      Dzz                  0.604
     Ti    16      Dzy                  0.490
     Ti    16      Dzx                  0.487
     Ti    16      Dxx-yy               0.591
     Ti    16      Dxy                  0.556
     Ti    16      Px                   0.322
     Ti    16      Py                   0.300
     Ti    16      Pz                   0.300
     Ti    17      S                    2.003
     Ti    17      Px                   2.006
     Ti    17      Py                   2.006
     Ti    17      Pz                   2.006
     Ti    17      S                    0.300
     Ti    17      Dzz                  0.598
     Ti    17      Dzy                  0.502
     Ti    17      Dzx                  0.470
     Ti    17      Dxx-yy               0.583
     Ti    17      Dxy                  0.558
     Ti    17      Px                   0.327
     Ti    17      Py                   0.345
     Ti    17      Pz                   0.321
     Ti    18      S                    2.003
     Ti    18      Px                   2.006
     Ti    18      Py                   2.006
     Ti    18      Pz                   2.006
     Ti    18      S                    0.309
     Ti    18      Dzz                  0.622
     Ti    18      Dzy                  0.491
     Ti    18      Dzx                  0.469
     Ti    18      Dxx-yy               0.601
     Ti    18      Dxy                  0.542
     Ti    18      Px                   0.332
     Ti    18      Py                   0.303
     Ti    18      Pz                   0.319
     Ti    19      S                    2.003
     Ti    19      Px                   2.006
     Ti    19      Py                   2.006
     Ti    19      Pz                   2.006
     Ti    19      S                    0.305
     Ti    19      Dzz                  0.592
     Ti    19      Dzy                  0.476
     Ti    19      Dzx                  0.496
     Ti    19      Dxx-yy               0.564
     Ti    19      Dxy                  0.579
     Ti    19      Px                   0.329
     Ti    19      Py                   0.332
     Ti    19      Pz                   0.326
     Ti    20      S                    2.003
     Ti    20      Px                   2.006
     Ti    20      Py                   2.005
     Ti    20      Pz                   2.006
     Ti    20      S                    0.315
     Ti    20      Dzz                  0.594
     Ti    20      Dzy                  0.499
     Ti    20      Dzx                  0.494
     Ti    20      Dxx-yy               0.547
     Ti    20      Dxy                  0.600
     Ti    20      Px                   0.290
     Ti    20      Py                   0.331
     Ti    20      Pz                   0.278
     Ti    21      S                    2.003
     Ti    21      Px                   2.005
     Ti    21      Py                   2.005
     Ti    21      Pz                   2.005
     Ti    21      S                    0.345
     Ti    21      Dzz                  0.610
     Ti    21      Dzy                  0.478
     Ti    21      Dzx                  0.498
     Ti    21      Dxx-yy               0.547
     Ti    21      Dxy                  0.588
     Ti    21      Px                   0.284
     Ti    21      Py                   0.312
     Ti    21      Pz                   0.338
     Ti    22      S                    2.003
     Ti    22      Px                   2.006
     Ti    22      Py                   2.005
     Ti    22      Pz                   2.006
     Ti    22      S                    0.296
     Ti    22      Dzz                  0.620
     Ti    22      Dzy                  0.469
     Ti    22      Dzx                  0.484
     Ti    22      Dxx-yy               0.573
     Ti    22      Dxy                  0.574
     Ti    22      Px                   0.323
     Ti    22      Py                   0.333
     Ti    22      Pz                   0.277
     Ti    23      S                    2.003
     Ti    23      Px                   2.005
     Ti    23      Py                   2.005
     Ti    23      Pz                   2.006
     Ti    23      S                    0.294
     Ti    23      Dzz                  0.615
     Ti    23      Dzy                  0.481
     Ti    23      Dzx                  0.491
     Ti    23      Dxx-yy               0.562
     Ti    23      Dxy                  0.570
     Ti    23      Px                   0.322
     Ti    23      Py                   0.335
     Ti    23      Pz                   0.296
     Ti    24      S                    2.003
     Ti    24      Px                   2.005
     Ti    24      Py                   2.005
     Ti    24      Pz                   2.005
     Ti    24      S                    0.301
     Ti    24      Dzz                  0.617
     Ti    24      Dzy                  0.470
     Ti    24      Dzx                  0.480
     Ti    24      Dxx-yy               0.560
     Ti    24      Dxy                  0.572
     Ti    24      Px                   0.330
     Ti    24      Py                   0.332
     Ti    24      Pz                   0.328
     Ti    25      S                    2.003
     Ti    25      Px                   2.006
     Ti    25      Py                   2.006
     Ti    25      Pz                   2.006
     Ti    25      S                    0.298
     Ti    25      Dzz                  0.606
     Ti    25      Dzy                  0.483
     Ti    25      Dzx                  0.484
     Ti    25      Dxx-yy               0.570
     Ti    25      Dxy                  0.575
     Ti    25      Px                   0.332
     Ti    25      Py                   0.331
     Ti    25      Pz                   0.330
     Ti    26      S                    2.004
     Ti    26      Px                   2.006
     Ti    26      Py                   2.006
     Ti    26      Pz                   2.006
     Ti    26      S                    0.316
     Ti    26      Dzz                  0.593
     Ti    26      Dzy                  0.525
     Ti    26      Dzx                  0.469
     Ti    26      Dxx-yy               0.600
     Ti    26      Dxy                  0.548
     Ti    26      Px                   0.314
     Ti    26      Py                   0.304
     Ti    26      Pz                   0.309
     Ti    27      S                    2.003
     Ti    27      Px                   2.005
     Ti    27      Py                   2.006
     Ti    27      Pz                   2.005
     Ti    27      S                    0.313
     Ti    27      Dzz                  0.618
     Ti    27      Dzy                  0.488
     Ti    27      Dzx                  0.487
     Ti    27      Dxx-yy               0.592
     Ti    27      Dxy                  0.551
     Ti    27      Px                   0.316
     Ti    27      Py                   0.277
     Ti    27      Pz                   0.314
     Ti    28      S                    2.003
     Ti    28      Px                   2.006
     Ti    28      Py                   2.005
     Ti    28      Pz                   2.006
     Ti    28      S                    0.317
     Ti    28      Dzz                  0.604
     Ti    28      Dzy                  0.484
     Ti    28      Dzx                  0.490
     Ti    28      Dxx-yy               0.586
     Ti    28      Dxy                  0.560
     Ti    28      Px                   0.315
     Ti    28      Py                   0.321
     Ti    28      Pz                   0.302
     Ti    29      S                    2.004
     Ti    29      Px                   2.007
     Ti    29      Py                   2.006
     Ti    29      Pz                   2.006
     Ti    29      S                    0.290
     Ti    29      Dzz                  0.590
     Ti    29      Dzy                  0.481
     Ti    29      Dzx                  0.506
     Ti    29      Dxx-yy               0.565
     Ti    29      Dxy                  0.555
     Ti    29      Px                   0.345
     Ti    29      Py                   0.335
     Ti    29      Pz                   0.301
     Ti    30      S                    2.003
     Ti    30      Px                   2.006
     Ti    30      Py                   2.006
     Ti    30      Pz                   2.005
     Ti    30      S                    0.319
     Ti    30      Dzz                  0.607
     Ti    30      Dzy                  0.484
     Ti    30      Dzx                  0.478
     Ti    30      Dxx-yy               0.551
     Ti    30      Dxy                  0.604
     Ti    30      Px                   0.300
     Ti    30      Py                   0.337
     Ti    30      Pz                   0.320
     Ti    31      S                    2.003
     Ti    31      Px                   2.006
     Ti    31      Py                   2.006
     Ti    31      Pz                   2.006
     Ti    31      S                    0.299
     Ti    31      Dzz                  0.587
     Ti    31      Dzy                  0.484
     Ti    31      Dzx                  0.494
     Ti    31      Dxx-yy               0.564
     Ti    31      Dxy                  0.572
     Ti    31      Px                   0.334
     Ti    31      Py                   0.340
     Ti    31      Pz                   0.322
     Ti    32      S                    2.003
     Ti    32      Px                   2.005
     Ti    32      Py                   2.005
     Ti    32      Pz                   2.006
     Ti    32      S                    0.305
     Ti    32      Dzz                  0.602
     Ti    32      Dzy                  0.487
     Ti    32      Dzx                  0.493
     Ti    32      Dxx-yy               0.570
     Ti    32      Dxy                  0.544
     Ti    32      Px                   0.333
     Ti    32      Py                   0.323
     Ti    32      Pz                   0.299
     Ti    33      S                    2.004
     Ti    33      Px                   2.006
     Ti    33      Py                   2.007
     Ti    33      Pz                   2.006
     Ti    33      S                    0.316
     Ti    33      Dzz                  0.603
     Ti    33      Dzy                  0.491
     Ti    33      Dzx                  0.484
     Ti    33      Dxx-yy               0.562
     Ti    33      Dxy                  0.582
     Ti    33      Px                   0.303
     Ti    33      Py                   0.324
     Ti    33      Pz                   0.298
     Ti    34      S                    2.003
     Ti    34      Px                   2.005
     Ti    34      Py                   2.006
     Ti    34      Pz                   2.006
     Ti    34      S                    0.298
     Ti    34      Dzz                  0.600
     Ti    34      Dzy                  0.500
     Ti    34      Dzx                  0.476
     Ti    34      Dxx-yy               0.573
     Ti    34      Dxy                  0.556
     Ti    34      Px                   0.340
     Ti    34      Py                   0.316
     Ti    34      Pz                   0.300
     Ti    35      S                    2.003
     Ti    35      Px                   2.006
     Ti    35      Py                   2.006
     Ti    35      Pz                   2.006
     Ti    35      S                    0.305
     Ti    35      Dzz                  0.615
     Ti    35      Dzy                  0.484
     Ti    35      Dzx                  0.485
     Ti    35      Dxx-yy               0.577
     Ti    35      Dxy                  0.568
     Ti    35      Px                   0.328
     Ti    35      Py                   0.318
     Ti    35      Pz                   0.281
     Ti    36      S                    2.003
     Ti    36      Px                   2.005
     Ti    36      Py                   2.006
     Ti    36      Pz                   2.006
     Ti    36      S                    0.314
     Ti    36      Dzz                  0.592
     Ti    36      Dzy                  0.476
     Ti    36      Dzx                  0.524
     Ti    36      Dxx-yy               0.560
     Ti    36      Dxy                  0.570
     Ti    36      Px                   0.328
     Ti    36      Py                   0.304
     Ti    36      Pz                   0.316
     Ti    37      S                    2.003
     Ti    37      Px                   2.005
     Ti    37      Py                   2.005
     Ti    37      Pz                   2.005
     Ti    37      S                    0.302
     Ti    37      Dzz                  0.598
     Ti    37      Dzy                  0.472
     Ti    37      Dzx                  0.489
     Ti    37      Dxx-yy               0.563
     Ti    37      Dxy                  0.580
     Ti    37      Px                   0.330
     Ti    37      Py                   0.339
     Ti    37      Pz                   0.330
     Ti    38      S                    2.003
     Ti    38      Px                   2.005
     Ti    38      Py                   2.005
     Ti    38      Pz                   2.005
     Ti    38      S                    0.309
     Ti    38      Dzz                  0.598
     Ti    38      Dzy                  0.487
     Ti    38      Dzx                  0.479
     Ti    38      Dxx-yy               0.605
     Ti    38      Dxy                  0.543
     Ti    38      Px                   0.332
     Ti    38      Py                   0.298
     Ti    38      Pz                   0.325
     Ti    39      S                    2.003
     Ti    39      Px                   2.006
     Ti    39      Py                   2.006
     Ti    39      Pz                   2.006
     Ti    39      S                    0.302
     Ti    39      Dzz                  0.618
     Ti    39      Dzy                  0.465
     Ti    39      Dzx                  0.483
     Ti    39      Dxx-yy               0.586
     Ti    39      Dxy                  0.569
     Ti    39      Px                   0.330
     Ti    39      Py                   0.316
     Ti    39      Pz                   0.303
     Ti    40      S                    2.003
     Ti    40      Px                   2.005
     Ti    40      Py                   2.005
     Ti    40      Pz                   2.005
     Ti    40      S                    0.301
     Ti    40      Dzz                  0.626
     Ti    40      Dzy                  0.465
     Ti    40      Dzx                  0.496
     Ti    40      Dxx-yy               0.601
     Ti    40      Dxy                  0.544
     Ti    40      Px                   0.326
     Ti    40      Py                   0.286
     Ti    40      Pz                   0.290
     Ti    41      S                    2.003
     Ti    41      Px                   2.006
     Ti    41      Py                   2.006
     Ti    41      Pz                   2.006
     Ti    41      S                    0.290
     Ti    41      Dzz                  0.604
     Ti    41      Dzy                  0.481
     Ti    41      Dzx                  0.492
     Ti    41      Dxx-yy               0.568
     Ti    41      Dxy                  0.575
     Ti    41      Px                   0.317
     Ti    41      Py                   0.325
     Ti    41      Pz                   0.310
     Ti    42      S                    2.003
     Ti    42      Px                   2.006
     Ti    42      Py                   2.006
     Ti    42      Pz                   2.006
     Ti    42      S                    0.317
     Ti    42      Dzz                  0.613
     Ti    42      Dzy                  0.458
     Ti    42      Dzx                  0.501
     Ti    42      Dxx-yy               0.586
     Ti    42      Dxy                  0.568
     Ti    42      Px                   0.320
     Ti    42      Py                   0.315
     Ti    42      Pz                   0.323
     Ti    43      S                    2.003
     Ti    43      Px                   2.006
     Ti    43      Py                   2.005
     Ti    43      Pz                   2.005
     Ti    43      S                    0.302
     Ti    43      Dzz                  0.605
     Ti    43      Dzy                  0.478
     Ti    43      Dzx                  0.490
     Ti    43      Dxx-yy               0.572
     Ti    43      Dxy                  0.574
     Ti    43      Px                   0.322
     Ti    43      Py                   0.330
     Ti    43      Pz                   0.303
     Ti    44      S                    2.003
     Ti    44      Px                   2.006
     Ti    44      Py                   2.005
     Ti    44      Pz                   2.005
     Ti    44      S                    0.317
     Ti    44      Dzz                  0.604
     Ti    44      Dzy                  0.496
     Ti    44      Dzx                  0.490
     Ti    44      Dxx-yy               0.597
     Ti    44      Dxy                  0.549
     Ti    44      Px                   0.316
     Ti    44      Py                   0.303
     Ti    44      Pz                   0.319
     Ti    45      S                    2.003
     Ti    45      Px                   2.006
     Ti    45      Py                   2.005
     Ti    45      Pz                   2.005
     Ti    45      S                    0.322
     Ti    45      Dzz                  0.586
     Ti    45      Dzy                  0.499
     Ti    45      Dzx                  0.491
     Ti    45      Dxx-yy               0.630
     Ti    45      Dxy                  0.527
     Ti    45      Px                   0.335
     Ti    45      Py                   0.256
     Ti    45      Pz                   0.346
     Ti    46      S                    2.003
     Ti    46      Px                   2.005
     Ti    46      Py                   2.005
     Ti    46      Pz                   2.006
     Ti    46      S                    0.305
     Ti    46      Dzz                  0.614
     Ti    46      Dzy                  0.481
     Ti    46      Dzx                  0.491
     Ti    46      Dxx-yy               0.557
     Ti    46      Dxy                  0.574
     Ti    46      Px                   0.324
     Ti    46      Py                   0.340
     Ti    46      Pz                   0.306
      V     1      S                    2.001
      V     1      Px                   2.003
      V     1      Py                   2.003
      V     1      Pz                   2.003
      V     1      Dzz                  0.874
      V     1      Dzy                  0.635
      V     1      Dzx                  0.676
      V     1      Dxx-yy               0.767
      V     1      Dxy                  0.775
      V     1      S                    0.364
      V     1      Px                   0.340
      V     1      Py                   0.319
      V     1      Pz                   0.303
      V     2      S                    2.001
      V     2      Px                   2.003
      V     2      Py                   2.003
      V     2      Pz                   2.003
      V     2      Dzz                  0.810
      V     2      Dzy                  0.648
      V     2      Dzx                  0.742
      V     2      Dxx-yy               0.698
      V     2      Dxy                  0.836
      V     2      S                    0.374
      V     2      Px                   0.307
      V     2      Py                   0.331
      V     2      Pz                   0.293
  -------------------------------------------
                           Total:     596.000
  -------------------------------------------

     Atomic Populations (Mulliken)
     -----------------------------
Species          Ion     s       p       d       f      Total   Charge (e)
==========================================================================
  Al              1     0.922   2.082   0.000   0.000   3.004    -0.004
  Al              2     0.941   2.067   0.000   0.000   3.008    -0.008
  Al              3     0.930   2.095   0.000   0.000   3.025    -0.025
  Al              4     0.959   2.030   0.000   0.000   2.989     0.011
  Al              5     0.955   2.054   0.000   0.000   3.009    -0.009
  Al              6     0.960   2.034   0.000   0.000   2.994     0.006
  Ti              1     2.299   6.939   2.731   0.000  11.969     0.031
  Ti              2     2.312   6.964   2.720   0.000  11.995     0.005
  Ti              3     2.301   6.963   2.716   0.000  11.979     0.021
  Ti              4     2.295   7.014   2.709   0.000  12.018    -0.018
  Ti              5     2.300   6.947   2.713   0.000  11.960     0.040
  Ti              6     2.309   6.977   2.716   0.000  12.002    -0.002
  Ti              7     2.313   6.984   2.714   0.000  12.011    -0.011
  Ti              8     2.307   6.958   2.717   0.000  11.981     0.019
  Ti              9     2.316   6.975   2.701   0.000  11.992     0.008
  Ti             10     2.333   6.905   2.764   0.000  12.002    -0.002
  Ti             11     2.308   7.004   2.714   0.000  12.026    -0.026
  Ti             12     2.289   7.011   2.709   0.000  12.010    -0.010
  Ti             13     2.303   6.992   2.698   0.000  11.993     0.007
  Ti             14     2.317   6.952   2.729   0.000  11.998     0.002
  Ti             15     2.326   6.952   2.723   0.000  12.002    -0.002
  Ti             16     2.300   6.942   2.727   0.000  11.969     0.031
  Ti             17     2.304   7.010   2.711   0.000  12.025    -0.025
  Ti             18     2.312   6.971   2.726   0.000  12.010    -0.010
  Ti             19     2.308   7.005   2.707   0.000  12.020    -0.020
  Ti             20     2.318   6.915   2.735   0.000  11.968     0.032
  Ti             21     2.348   6.949   2.721   0.000  12.018    -0.018
  Ti             22     2.299   6.950   2.719   0.000  11.968     0.032
  Ti             23     2.297   6.969   2.720   0.000  11.986     0.014
  Ti             24     2.304   7.004   2.699   0.000  12.007    -0.007
  Ti             25     2.302   7.011   2.718   0.000  12.030    -0.030
  Ti             26     2.320   6.946   2.736   0.000  12.001    -0.001
  Ti             27     2.316   6.923   2.736   0.000  11.975     0.025
  Ti             28     2.320   6.954   2.723   0.000  11.997     0.003
  Ti             29     2.294   6.999   2.698   0.000  11.992     0.008
  Ti             30     2.323   6.974   2.724   0.000  12.021    -0.021
  Ti             31     2.303   7.013   2.701   0.000  12.016    -0.016
  Ti             32     2.308   6.971   2.697   0.000  11.975     0.025
  Ti             33     2.320   6.944   2.720   0.000  11.984     0.016
  Ti             34     2.302   6.973   2.704   0.000  11.979     0.021
  Ti             35     2.308   6.944   2.728   0.000  11.981     0.019
  Ti             36     2.317   6.965   2.722   0.000  12.004    -0.004
  Ti             37     2.305   7.014   2.702   0.000  12.021    -0.021
  Ti             38     2.312   6.971   2.711   0.000  11.994     0.006
  Ti             39     2.305   6.965   2.722   0.000  11.992     0.008
  Ti             40     2.304   6.918   2.732   0.000  11.954     0.046
  Ti             41     2.293   6.969   2.720   0.000  11.981     0.019
  Ti             42     2.320   6.976   2.726   0.000  12.022    -0.022
  Ti             43     2.305   6.972   2.720   0.000  11.997     0.003
  Ti             44     2.320   6.954   2.735   0.000  12.009    -0.009
  Ti             45     2.325   6.952   2.733   0.000  12.010    -0.010
  Ti             46     2.307   6.986   2.716   0.000  12.010    -0.010
  V               1     2.365   6.972   3.727   0.000  13.065    -0.065
  V               2     2.375   6.941   3.734   0.000  13.050    -0.050
==========================================================================

                 Bond                   Population      Length (A)
======================================================================
             Ti 16 -- V 1                    0.22        2.76415
             Ti 1  -- V 2                    0.18        2.76731
             Ti 9  -- Ti 36                  0.22        2.77359
              Al 1 -- Ti 5                   0.21        2.77507
             Ti 41 -- V 2                    0.20        2.78688
              Al 5 -- Al 6                   0.29        2.78723
              Al 4 -- Ti 40                  0.26        2.78737
             Ti 16 -- Ti 29                  0.13        2.79029
             Ti 1  -- Ti 34                  0.19        2.79405
              Al 1 -- Ti 1                   0.20        2.79740
              Al 1 -- Ti 40                  0.25        2.79889
             Ti 22 -- Ti 33                  0.23        2.80025
              Al 1 -- V 1                    0.22        2.80027
             Ti 1  -- V 1                    0.25        2.80052
             Ti 40 -- V 2                    0.15        2.80109
             Ti 5  -- V 2                    0.16        2.80141
             Ti 26 -- Ti 39                  0.13        2.80278
             Ti 7  -- Ti 38                  0.17        2.80639
             Ti 14 -- Ti 15                  0.12        2.80824
             Ti 11 -- Ti 37                  0.27        2.80951
             Ti 1  -- Ti 7                   0.13        2.80998
             Ti 16 -- Ti 33                  0.15        2.81109
             Ti 34 -- V 2                    0.17        2.81162
             Ti 14 -- Ti 31                  0.16        2.81263
             Ti 15 -- Ti 46                  0.14        2.81386
              Al 2 -- Ti 22                  0.20        2.81393
              Al 4 -- Ti 22                  0.22        2.81462
             Ti 23 -- Ti 33                  0.14        2.81674
             Ti 22 -- V 2                    0.26        2.81906
             Ti 29 -- V 1                    0.24        2.81995
              Al 5 -- Ti 35                  0.23        2.82051
             Ti 20 -- Ti 31                  0.12        2.82208
              Al 6 -- Ti 46                  0.23        2.82256
              Al 1 -- Ti 23                  0.22        2.82365
             Ti 40 -- V 1                    0.20        2.82404
             Ti 20 -- Ti 21                  0.20        2.82450
              Al 2 -- Ti 45                  0.23        2.82507
             Ti 35 -- Ti 36                  0.15        2.82528
             Ti 3  -- Ti 36                  0.12        2.82631
              Al 2 -- Ti 16                  0.22        2.82651
              Al 4 -- Ti 45                  0.26        2.82676
              Al 3 -- Ti 41                  0.22        2.82687
             Ti 15 -- Ti 21                  0.29        2.82711
             Ti 10 -- Ti 14                  0.18        2.82715
             Ti 12 -- Ti 29                  0.11        2.82729
             Ti 11 -- V 1                    0.27        2.82786
             Ti 1  -- Ti 6                   0.15        2.82787
             Ti 31 -- Ti 32                  0.12        2.82803
             Ti 23 -- V 1                    0.21        2.82813
             Ti 9  -- Ti 10                  0.19        2.82924
             Ti 18 -- Ti 19                  0.16        2.82944
             Ti 17 -- Ti 24                  0.13        2.83086
             Ti 11 -- Ti 16                  0.12        2.83093
             Ti 5  -- Ti 6                   0.11        2.83097
             Ti 13 -- Ti 19                  0.26        2.83175
              Al 2 -- Ti 14                  0.19        2.83196
             Ti 12 -- Ti 38                  0.24        2.83202
             Ti 1  -- Ti 41                  0.21        2.83292
             Ti 4  -- Ti 9                   0.23        2.83414
              Al 2 -- Ti 32                  0.22        2.83434
             Ti 22 -- Ti 29                  0.14        2.83494
             Ti 1  -- Ti 23                  0.23        2.83500
             Ti 23 -- Ti 28                  0.16        2.83668
             Ti 2  -- Ti 3                   0.14        2.83789
             Ti 2  -- Ti 42                  0.22        2.83823
             Ti 29 -- Ti 33                  0.11        2.83881
              Al 3 -- Ti 3                   0.20        2.83896
              Al 1 -- Ti 16                  0.25        2.83902
             Ti 7  -- Ti 12                  0.21        2.83926
             Ti 7  -- Ti 23                  0.12        2.83999
              Al 3 -- Ti 34                  0.20        2.84027
             Ti 14 -- Ti 20                  0.27        2.84071
             Ti 37 -- Ti 46                  0.16        2.84088
              Al 3 -- Ti 30                  0.28        2.84130
             Ti 7  -- V 1                    0.17        2.84201
              Al 6 -- Ti 44                  0.25        2.84207
             Ti 22 -- Ti 34                  0.12        2.84216
             Ti 6  -- Ti 17                  0.18        2.84226
             Ti 27 -- Ti 28                  0.14        2.84297
             Ti 21 -- Ti 28                  0.17        2.84304
             Ti 24 -- Ti 25                  0.13        2.84408
             Ti 2  -- Ti 17                  0.14        2.84442
             Ti 20 -- Ti 35                  0.16        2.84514
             Ti 25 -- Ti 32                  0.14        2.84551
             Ti 34 -- Ti 41                  0.17        2.84566
              Al 5 -- Ti 44                  0.27        2.84590
             Ti 45 -- Ti 46                  0.12        2.84627
             Ti 45 -- V 2                    0.20        2.84681
              Al 1 -- Ti 27                  0.22        2.84712
             Ti 28 -- Ti 37                  0.14        2.84771
              Al 2 -- Ti 33                  0.23        2.84775
             Ti 42 -- Ti 43                  0.15        2.84824
             Ti 19 -- Ti 26                  0.15        2.84835
             Ti 16 -- Ti 22                  0.17        2.84852
              Al 4 -- Ti 36                  0.25        2.84868
             Ti 17 -- Ti 29                  0.23        2.84895
             Ti 3  -- Ti 43                  0.25        2.84905
             Ti 6  -- Ti 28                  0.22        2.84920
              Al 5 -- Ti 8                   0.20        2.84947
             Ti 4  -- Ti 36                  0.21        2.84964
             Ti 4  -- Ti 13                  0.13        2.84984
             Ti 2  -- Ti 11                  0.16        2.85019
              Al 1 -- Ti 10                  0.23        2.85044
             Ti 8  -- Ti 31                  0.25        2.85070
              Al 3 -- Ti 1                   0.21        2.85073
             Ti 6  -- Ti 11                  0.14        2.85075
             Ti 10 -- Ti 40                  0.15        2.85119
             Ti 32 -- Ti 43                  0.15        2.85119
             Ti 18 -- Ti 34                  0.16        2.85138
             Ti 18 -- Ti 30                  0.21        2.85155
             Ti 17 -- Ti 28                  0.14        2.85179
             Ti 12 -- V 1                    0.16        2.85202
             Ti 18 -- Ti 29                  0.13        2.85298
             Ti 11 -- Ti 29                  0.22        2.85314
              Al 4 -- V 2                    0.20        2.85348
              Al 5 -- Ti 10                  0.25        2.85380
             Ti 36 -- Ti 43                  0.14        2.85380
              Al 5 -- Ti 39                  0.21        2.85430
             Ti 15 -- Ti 16                  0.14        2.85479
              Al 4 -- Ti 5                   0.25        2.85509
              Al 2 -- Ti 10                  0.27        2.85521
             Ti 33 -- Ti 41                  0.12        2.85541
             Ti 9  -- Ti 32                  0.26        2.85549
             Ti 33 -- Ti 45                  0.14        2.85702
             Ti 6  -- Ti 15                  0.14        2.85727
             Ti 39 -- Ti 44                  0.13        2.85762
             Ti 8  -- Ti 35                  0.25        2.85821
              Al 6 -- Ti 28                  0.21        2.85823
             Ti 8  -- Ti 38                  0.14        2.86011
             Ti 41 -- Ti 46                  0.17        2.86032
             Ti 14 -- Ti 44                  0.21        2.86168
             Ti 25 -- Ti 30                  0.11        2.86340
             Ti 5  -- Ti 45                  0.20        2.86372
             Ti 27 -- Ti 32                  0.15        2.86408
             Ti 26 -- Ti 27                  0.17        2.86452
             Ti 12 -- Ti 13                  0.12        2.86464
             Ti 29 -- Ti 30                  0.13        2.86582
              Al 3 -- Ti 43                  0.20        2.86598
             Ti 11 -- Ti 12                  0.12        2.86619
             Ti 3  -- Ti 19                  0.23        2.86648
             Ti 3  -- Ti 9                   0.13        2.86695
              Al 2 -- Ti 20                  0.23        2.86734
             Ti 17 -- Ti 34                  0.25        2.86795
             Ti 8  -- Ti 12                  0.13        2.86802
             Ti 34 -- Ti 38                  0.13        2.86819
             Ti 37 -- Ti 40                  0.13        2.86835
             Ti 4  -- Ti 19                  0.13        2.86858
             Ti 34 -- Ti 40                  0.12        2.86865
             Ti 13 -- Ti 31                  0.23        2.86897
              Al 1 -- V 2                    0.26        2.86905
             Ti 13 -- Ti 42                  0.12        2.87018
              Al 4 -- Al 5                   0.22        2.87074
              Al 5 -- Ti 26                  0.25        2.87106
              Al 6 -- Ti 21                  0.30        2.87129
             Ti 3  -- Ti 13                  0.25        2.87156
             Ti 11 -- Ti 42                  0.12        2.87164
              Al 5 -- Ti 36                  0.25        2.87211
             Ti 27 -- Ti 33                  0.15        2.87246
             Ti 6  -- V 2                    0.24        2.87290
             Ti 9  -- Ti 25                  0.12        2.87316
             Ti 8  -- Ti 14                  0.13        2.87485
              Al 4 -- Al 6                   0.22        2.87494
              Al 2 -- Ti 27                  0.26        2.87532
             Ti 29 -- Ti 34                  0.24        2.87533
             Ti 44 -- Ti 45                  0.20        2.87554
              Al 4 -- Ti 20                  0.24        2.87554
              Al 2 -- Ti 15                  0.23        2.87607
             Ti 30 -- Ti 41                  0.15        2.87617
             Ti 11 -- Ti 46                  0.13        2.87637
             Ti 19 -- Ti 24                  0.12        2.87641
              Al 3 -- Ti 7                   0.26        2.87668
              Al 1 -- Ti 6                   0.23        2.87669
             Ti 4  -- Ti 26                  0.26        2.87731
             Ti 14 -- Ti 32                  0.20        2.87809
             Ti 5  -- Ti 10                  0.20        2.87890
             Ti 21 -- Ti 22                  0.19        2.87951
             Ti 8  -- Ti 39                  0.24        2.87953
             Ti 4  -- Ti 21                  0.13        2.87955
             Ti 24 -- Ti 37                  0.14        2.87977
              Al 5 -- Ti 20                  0.28        2.88035
             Ti 9  -- Ti 26                  0.29        2.88062
              Al 3 -- Ti 18                  0.26        2.88074
             Ti 4  -- Ti 44                  0.26        2.88077
             Ti 38 -- Ti 39                  0.12        2.88087
             Ti 11 -- Ti 41                  0.26        2.88117
             Ti 13 -- Ti 44                  0.12        2.88136
              Al 3 -- Ti 35                  0.20        2.88185
             Ti 10 -- Ti 16                  0.13        2.88195
              Al 3 -- Ti 42                  0.24        2.88240
             Ti 17 -- Ti 18                  0.13        2.88240
             Ti 15 -- Ti 44                  0.14        2.88337
              Al 3 -- Ti 2                   0.27        2.88368
             Ti 18 -- Ti 31                  0.14        2.88371
             Ti 35 -- Ti 38                  0.14        2.88415
             Ti 39 -- Ti 42                  0.12        2.88449
              Al 6 -- Ti 40                  0.23        2.88504
             Ti 9  -- Ti 27                  0.15        2.88505
             Ti 7  -- Ti 8                   0.14        2.88568
             Ti 4  -- Ti 5                   0.13        2.88575
             Ti 3  -- Ti 7                   0.14        2.88603
             Ti 30 -- Ti 43                  0.13        2.88739
              Al 1 -- Ti 33                  0.26        2.88742
             Ti 17 -- Ti 22                  0.15        2.88780
             Ti 27 -- Ti 45                  0.17        2.88830
             Ti 41 -- Ti 42                  0.14        2.88872
              Al 4 -- Ti 10                  0.29        2.88874
             Ti 8  -- Ti 13                  0.27        2.88903
             Ti 5  -- Ti 36                  0.12        2.88963
             Ti 35 -- Ti 39                  0.21        2.88995
             Ti 18 -- Ti 35                  0.15        2.89026
             Ti 23 -- Ti 30                  0.14        2.89034
             Ti 22 -- Ti 40                  0.21        2.89040
             Ti 30 -- Ti 42                  0.26        2.89079
             Ti 8  -- Ti 9                   0.12        2.89173
             Ti 10 -- Ti 27                  0.17        2.89246
             Ti 2  -- Ti 19                  0.13        2.89255
             Ti 25 -- Ti 26                  0.12        2.89268
              Al 6 -- Ti 26                  0.21        2.89292
             Ti 35 -- Ti 43                  0.23        2.89360
             Ti 23 -- Ti 24                  0.15        2.89373
             Ti 2  -- Ti 13                  0.12        2.89381
             Ti 28 -- Ti 46                  0.27        2.89394
             Ti 4  -- Ti 14                  0.20        2.89448
             Ti 6  -- Ti 21                  0.14        2.89448
             Ti 7  -- Ti 25                  0.13        2.89454
             Ti 24 -- Ti 42                  0.29        2.89465
             Ti 33 -- V 2                    0.33        2.89573
             Ti 26 -- Ti 32                  0.27        2.89619
              Al 3 -- Ti 38                  0.25        2.89620
             Ti 26 -- Ti 44                  0.27        2.89660
             Ti 17 -- Ti 37                  0.28        2.89832
             Ti 13 -- Ti 14                  0.16        2.89837
             Ti 3  -- Ti 35                  0.22        2.89866
             Ti 12 -- Ti 18                  0.20        2.89958
             Ti 3  -- Ti 4                   0.13        2.90029
             Ti 25 -- Ti 43                  0.26        2.90044
             Ti 32 -- Ti 45                  0.14        2.90045
             Ti 38 -- V 1                    0.15        2.90123
             Ti 25 -- Ti 31                  0.24        2.90139
             Ti 33 -- Ti 46                  0.28        2.90184
             Ti 20 -- Ti 32                  0.26        2.90245
             Ti 5  -- Ti 27                  0.21        2.90263
             Ti 4  -- Ti 15                  0.11        2.90267
              Al 1 -- Ti 28                  0.22        2.90336
              Al 2 -- Ti 21                  0.23        2.90356
             Ti 3  -- Ti 25                  0.25        2.90357
             Ti 10 -- Ti 15                  0.25        2.90394
             Ti 30 -- Ti 31                  0.11        2.90450
             Ti 19 -- Ti 25                  0.24        2.90487
              Al 6 -- Ti 27                  0.26        2.90532
             Ti 13 -- Ti 39                  0.28        2.90618
              Al 4 -- Ti 21                  0.26        2.90640
             Ti 12 -- Ti 31                  0.12        2.90777
              Al 2 -- Al 4                   0.20        2.90831
             Ti 37 -- V 1                    0.28        2.90834
             Ti 25 -- Ti 39                  0.23        2.90889
             Ti 6  -- Ti 46                  0.23        2.91142
             Ti 5  -- Ti 9                   0.09        2.91202
             Ti 12 -- Ti 42                  0.23        2.91280
             Ti 37 -- Ti 42                  0.10        2.91302
             Ti 16 -- Ti 40                  0.18        2.91306
             Ti 19 -- Ti 31                  0.24        2.91393
             Ti 19 -- Ti 39                  0.27        2.91438
             Ti 24 -- Ti 39                  0.11        2.91451
             Ti 12 -- Ti 30                  0.23        2.91488
             Ti 36 -- Ti 45                  0.20        2.91588
             Ti 23 -- Ti 29                  0.23        2.91793
             Ti 46 -- V 2                    0.23        2.91979
             Ti 20 -- Ti 26                  0.23        2.91986
             Ti 21 -- Ti 26                  0.13        2.91989
             Ti 18 -- Ti 38                  0.23        2.92016
             Ti 2  -- Ti 24                  0.27        2.92020
              Al 6 -- Ti 10                  0.26        2.92046
             Ti 37 -- Ti 38                  0.12        2.92218
             Ti 31 -- Ti 43                  0.24        2.92349
             Ti 2  -- Ti 12                  0.21        2.92439
             Ti 1  -- Ti 2                   0.16        2.92520
             Ti 13 -- Ti 43                  0.27        2.92578
             Ti 28 -- Ti 33                  0.25        2.92583
             Ti 20 -- Ti 36                  0.24        2.92663
             Ti 18 -- Ti 24                  0.24        2.92763
             Ti 8  -- Ti 25                  0.24        2.93046
              Al 5 -- Ti 14                  0.26        2.93132
             Ti 39 -- Ti 43                  0.25        2.93378
             Ti 34 -- Ti 37                  0.25        2.93444
             Ti 7  -- Ti 30                  0.30        2.93467
             Ti 24 -- Ti 38                  0.24        2.93606
             Ti 21 -- Ti 27                  0.26        2.93821
             Ti 24 -- Ti 30                  0.28        2.93898
             Ti 38 -- Ti 42                  0.29        2.93920
             Ti 5  -- Ti 15                  0.22        2.93923
             Ti 37 -- Ti 41                  0.21        2.93955
             Ti 19 -- Ti 20                  0.13        2.94234
             Ti 31 -- Ti 35                  0.25        2.94282
             Ti 4  -- Ti 20                  0.20        2.94406
             Ti 11 -- Ti 17                  0.27        2.94445
             Ti 43 -- Ti 44                  0.14        2.94714
             Ti 17 -- Ti 23                  0.25        2.95239
              Al 6 -- Ti 15                  0.25        2.95365
             Ti 2  -- Ti 7                   0.23        2.95428
             Ti 2  -- Ti 18                  0.25        2.95457
             Ti 19 -- Ti 35                  0.27        2.95467
             Ti 5  -- Ti 21                  0.26        2.95710
             Ti 3  -- Ti 8                   0.26        2.95824
             Ti 34 -- V 1                    0.28        2.95852
              Al 5 -- Ti 9                   0.24        2.96659
             Ti 7  -- Ti 24                  0.22        2.97526
             Ti 32 -- Ti 44                  0.29        2.98057
             Ti 23 -- Ti 37                  0.23        2.98144
             Ti 29 -- Ti 41                  0.22        2.98696
             Ti 23 -- Ti 41                  0.25        2.98891
             Ti 9  -- Ti 14                  0.24        2.98954
             Ti 22 -- Ti 28                  0.24        2.99288
             Ti 40 -- Ti 46                  0.21        2.99929
======================================================================

 
 A BibTeX formatted list of references used in this run has been written to 
 sqs_hcp_sc3x3x3_Ti46Al6V2_frame0_06.bib
 
Initialisation time =     19.71 s
Calculation time    =   2097.94 s
Finalisation time   =      0.64 s
Total time          =   2118.29 s
Peak Memory Use     = 1907012 kB
 
Overall parallel efficiency rating: Mediocre (57%)
 
Data was distributed by:-
G-vector (24-way); efficiency rating: Mediocre (58%)
k-point (14-way); efficiency rating: Excellent (97%)
