 +-------------------------------------------------+
 |                                                 |
 |      CCC   AA    SSS  TTTTT  EEEEE  PPPP        |
 |     C     A  A  S       T    E      P   P       |
 |     C     AAAA   SS     T    EEE    PPPP        |
 |     C     A  A     S    T    E      P           |
 |      CCC  A  A  SSS     T    EEEEE  P           |
 |                                                 |
 +-------------------------------------------------+
 |                                                 |
 | Welcome to Academic Release CASTEP version 24.1 |
 | Ab Initio Total Energy Program                  |
 |                                                 |
 | Authors:                                        |
 | M. Segall, M. Probert, C. Pickard, P. Hasnip,   |
 | S. Clark, K. Refson, J. R. Yates,               |
 | A. Bartok-Partay, M. Payne                      |
 |                                                 |
 | Contributors:                                   |
 | P. Lindan, P. Haynes, J. White, V. Milman,      |
 | N. Govind, M. Gibson, P. Tulip, V. Cocula,      |
 | B. Montanari, D. Quigley, M. Glover,            |
 | L. Bernasconi, A. Perlov, M. Plummer,           |
 | E. McNellis, J. Meyer, J. Gale, D. Jochym       |
 | J. Aarons, B. Walker, R. Gillen, D. Jones       |
 | T. Green, I. J. Bush, C. J. Armstrong,          |
 | E. J. Higgins, E. L. Brown, M. S. McFly,        |
 | J. Wilkins, B-C. Shih, P. J. P. Byrne,          |
 | R. J. Maurer, J. C. Womack, J. Dziedzic,        |
 | L. LeBlanc, T. K. Stenczel, J. Kermode,         |
 | S. Sturniolo, B. Shi, B. Durham, M. Evans,      |
 | M. J. Smith, A. Tamerus, Z. Hawkhead,           |
 | V. Ravindran, T. Hollins, S. A. Joyce,          |
 | R. T. Strong, A. M. Reilly                      |
 |                                                 |
 | Copyright (c) 2000 - 2023                       |
 |                                                 |
 |     Distributed under license from Cambridge    |
 |     Enterprise for academic use only.           |
 |                                                 |
 | Please cite                                     |
 |                                                 |
 |     "First principles methods using CASTEP"     |
 |                                                 |
 |         Zeitschrift fuer Kristallographie       |
 |           220(5-6) pp. 567-570 (2005)           |
 |                                                 |
 | S. J. Clark, M. D. Segall, C. J. Pickard,       |
 | P. J. Hasnip, M. J. Probert, K. Refson,         |
 | M. C. Payne                                     |
 |                                                 |
 |       in all publications arising from          |
 |              your use of CASTEP                 |
 |                                                 |
 +-------------------------------------------------+
 |                                                 |
 |              http://www.castep.org              |
 |                                                 |
 +-------------------------------------------------+



 Compiled for linux_x86_64_gfortran10 on Tue, 02 May 2023 15:31:46 +0100
 from code version db08e394c+  default  Mon May 1 16:40:39 2023 +0100
 Compiler: GNU Fortran 10.2.0; Optimisation: fast
 Comms   : Open MPI v4.0.5
 MATHLIBS: openblas (LAPACK version 3.9.0)
 FFT Lib : fftw3 version fftw-3.3.8-sse2-avx-avx2-avx2_128
 Fundamental constants values: CODATA 2018

 Run started: Wed, 07 Feb 2024 14:46:55 +0000

 Atomic calculation performed for Al: 1s2 2s2 2p6 3s2 3p1

 Converged in 54 iterations to an ae energy of -6603.783 eV

   ============================================================                
   | Pseudopotential Report - Date of generation  7-02-2024   |                
   ------------------------------------------------------------                
   | Element: Al Ionic charge:  3.00 Level of theory: PBE     |                
   | Atomic Solver: Koelling-Harmon                           |                
   |                                                          |                
   |               Reference Electronic Structure             |                
   |         Orbital         Occupation         Energy        |                
   |            3s              2.000           -0.285        |                
   |            3p              1.000           -0.100        |                
   |                                                          |                
   |                 Pseudopotential Definition               |                
   |        Beta     l      e      Rc     scheme   norm       |                
   |          1      0   -0.285   2.192     qc      0         |                
   |          2      0    0.250   2.192     qc      0         |                
   |          3      1   -0.100   2.192     qc      0         |                
   |          4      1    0.250   2.192     qc      0         |                
   |          5      2    0.000   2.000     qc      0         |                
   |          6      2    0.250   2.000     qc      0         |                
   |         loc     3    0.000   2.192     pn      0         |                
   |                                                          |                
   | Augmentation charge Rinner = 1.398                       |                
   | Partial core correction Rc = 1.398                       |                
   ------------------------------------------------------------                
   | "3|2.2|2.2|1.4|4|5|5|30:31:32U2U2"                       |                
   ------------------------------------------------------------                
   |      Author: Chris J. Pickard, Cambridge University      |                
   ============================================================                

 Atomic calculation performed for Ti: 1s2 2s2 2p6 3s2 3p6 3d2 4s2

 Converged in 79 iterations to an ae energy of -23226.658 eV

   ============================================================                
   | Pseudopotential Report - Date of generation  7-02-2024   |                
   ------------------------------------------------------------                
   | Element: Ti Ionic charge: 12.00 Level of theory: PBE     |                
   | Atomic Solver: Koelling-Harmon                           |                
   |                                                          |                
   |               Reference Electronic Structure             |                
   |         Orbital         Occupation         Energy        |                
   |            3s              2.000           -2.302        |                
   |            3p              6.000           -1.428        |                
   |            4s              2.000           -0.164        |                
   |            3d              2.000           -0.157        |                
   |                                                          |                
   |                 Pseudopotential Definition               |                
   |        Beta     l      e      Rc     scheme   norm       |                
   |          1      0   -2.302   1.793     qc      0         |                
   |          2      0   -0.164   1.793     qc      0         |                
   |          3      0    0.250   1.793     qc      0         |                
   |          4      1   -1.428   1.793     qc      0         |                
   |          5      1    0.250   1.793     qc      0         |                
   |          6      2   -0.157   1.793     qc      0         |                
   |          7      2    0.250   1.793     qc      0         |                
   |         loc     3    0.000   1.793     pn      0         |                
   |                                                          |                
   | Augmentation charge Rinner = 1.263                       |                
   | Partial core correction Rc = 1.263                       |                
   ------------------------------------------------------------                
   | "3|1.8|9|10|11|30U:40:31:32(qc=5.5)"                     |                
   ------------------------------------------------------------                
   |      Author: Chris J. Pickard, Cambridge University      |                
   ============================================================                

 Atomic calculation performed for V: 1s2 2s2 2p6 3s2 3p6 3d3 4s2

 Converged in 81 iterations to an ae energy of -25823.733 eV

   ============================================================                
   | Pseudopotential Report - Date of generation  7-02-2024   |                
   ------------------------------------------------------------                
   | Element: V Ionic charge: 13.00 Level of theory: PBE      |                
   | Atomic Solver: Koelling-Harmon                           |                
   |                                                          |                
   |               Reference Electronic Structure             |                
   |         Orbital         Occupation         Energy        |                
   |            3s              2.000           -2.581        |                
   |            3p              6.000           -1.618        |                
   |            3d              3.000           -0.190        |                
   |            4s              2.000           -0.173        |                
   |                                                          |                
   |                 Pseudopotential Definition               |                
   |        Beta     l      e      Rc     scheme   norm       |                
   |          1      0   -2.581   1.803     qc      0         |                
   |          2      0   -0.173   1.803     qc      0         |                
   |          3      0    0.250   1.803     qc      0         |                
   |          4      1   -1.618   1.803     qc      0         |                
   |          5      1    0.250   1.803     qc      0         |                
   |          6      2   -0.190   1.803     qc      0         |                
   |          7      2    0.250   1.803     qc      0         |                
   |         loc     3    0.000   1.803     pn      0         |                
   |                                                          |                
   | Augmentation charge Rinner = 0.600                       |                
   | Partial core correction Rc = 0.600                       |                
   ------------------------------------------------------------                
   | "3|1.8|1.8|0.6|12|14|16|30U:40:31:32(qc=7)"              |                
   ------------------------------------------------------------                
   |      Author: Chris J. Pickard, Cambridge University      |                
   ============================================================                

 Pseudo atomic calculation performed for Al 3s2 3p1

 Converged in 15 iterations to a total energy of -107.1308 eV

 Pseudo atomic calculation performed for Ti 3s2 3p6 3d2 4s2

 Converged in 34 iterations to a total energy of -1587.0236 eV

 Pseudo atomic calculation performed for V 3s2 3p6 3d3 4s2

 Converged in 35 iterations to a total energy of -2065.7874 eV
 Calculation parallelised over 336 processes.
 Data is distributed by G-vector(24-way) and k-point(14-way)

 ************************************ Title ************************************
 

 ***************************** General Parameters ******************************
  
 output verbosity                               : normal  (1)
 write checkpoint data to                       : sqs_hcp_sc3x3x3_Ti46Al6V2_frame0_03.check
 type of calculation                            : single point energy
 stress calculation                             : on
 density difference calculation                 : off
 electron localisation func (ELF) calculation   : off
 Hirshfeld analysis                             : off
 polarisation (Berry phase) analysis            : off
 molecular orbital projected DOS                : off
 deltaSCF calculation                           : off
 unlimited duration calculation
 timing information                             : on
 memory usage estimate                          : on
 write extra output files                       : on
 write final potential to formatted file        : off
 write final density to formatted file          : off
 write BibTeX reference list                    : on
 write OTFG pseudopotential files               : on
 write electrostatic potential file             : on
 write bands file                               : on
 checkpoint writing                             : off
  
 output         length unit                     : A
 output           mass unit                     : amu
 output           time unit                     : ps
 output         charge unit                     : e
 output           spin unit                     : hbar/2
 output         energy unit                     : eV
 output          force unit                     : eV/A
 output       velocity unit                     : A/ps
 output       pressure unit                     : GPa
 output     inv_length unit                     : 1/A
 output      frequency unit                     : cm-1
 output force constant unit                     : eV/A**2
 output         volume unit                     : A**3
 output   IR intensity unit                     : (D/A)**2/amu
 output         dipole unit                     : D
 output         efield unit                     : eV/A/e
 output        entropy unit                     : J/mol/K
 output    efield chi2 unit                     : pm/V
  
 wavefunctions paging                           : none
 random number generator seed                   :  144655490
 data distribution                              : k-point only
 optimization strategy                          : maximize speed(+++)

 *********************** Exchange-Correlation Parameters ***********************
  
 using functional                               : Perdew Burke Ernzerhof
 relativistic treatment                         : Koelling-Harmon
 DFT+D: Semi-empirical dispersion correction    : off

 ************************* Pseudopotential Parameters **************************
  
 pseudopotential representation                 : reciprocal space
 <beta|phi> representation                      : reciprocal space
 spin-orbit coupling                            : off

 **************************** Basis Set Parameters *****************************
  
 plane wave basis set cut-off                   :   800.0000   eV
 size of standard grid                          :     2.0000
 size of   fine   gmax                          :    28.9810   1/A
 largest prime factor in FFT                    :          5
 finite basis set correction                    : automatic
 number of sample energies                      :          3
           sample  spacing                      :     5.0000   eV

 **************************** Electronic Parameters ****************************
  
 number of  electrons                           :  596.0    
 net charge of system                           :  0.000    
 treating system as non-spin-polarized
 number of bands                                :        333

 ********************* Electronic Minimization Parameters **********************
  
 Method: Treating system as metallic with density mixing treatment of electrons,
         and number of  SD  steps               :          1
         and number of  CG  steps               :          4
  
 total energy / atom convergence tol.           : 0.1000E-05   eV
 eigen-energy convergence tolerance             : 0.1622E-06   eV
 max force / atom convergence tol.              : ignored
 convergence tolerance window                   :          3   cycles
 max. number of SCF cycles                      :         30
 number of fixed-spin iterations                :         10
 smearing scheme                                : Gaussian
 smearing width                                 : 0.5000E-01   eV
 Fermi energy convergence tolerance             : 0.2721E-13   eV
 periodic dipole correction                     : NONE

 ************************** Density Mixing Parameters **************************
  
 density-mixing scheme                          : Pulay
 max. length of mixing history                  :         20
 charge density mixing amplitude                : 0.8000    
 cut-off energy for mixing                      :  800.0       eV
 charge density mixing g-vector                 :  1.500       1/A

 *********************** Population Analysis Parameters ************************
  
 Population analysis with cutoff                :  3.000       A
 Population analysis output                     : summary and pdos components

 ******************************* Developer Code ********************************
  
 PARALLEL: kpoint=14 : ENDPARALLEL
 no_improve_wvfn

 *******************************************************************************
  

                           -------------------------------
                                      Unit Cell
                           -------------------------------
        Real Lattice(A)                      Reciprocal Lattice(1/A)
     4.3693630    -7.5679570     0.0000100        0.719004728  -0.415117667   0.000003462
     4.3693630     7.5679570     0.0000450        0.719004728   0.415117667   0.000005356
    -0.0000860    -0.0000320    14.0255520       -0.000002820  -0.000001036   0.447981321

                       Lattice parameters(A)       Cell Angles
                    a =      8.738725          alpha =   89.999994
                    b =      8.738725          beta  =   89.999997
                    c =     14.025552          gamma =  119.999989

                       Current cell volume =           927.570100       A**3
                                   density =             2.658186   AMU/A**3
                                           =             4.414022     g/cm^3

                           -------------------------------
                                     Cell Contents
                           -------------------------------
                         Total number of ions in cell =   54
                      Total number of species in cell =    3
                        Max number of any one species =   46

            xxxxxxxxxxxxxxxxxxxxxxxxxxxxxxxxxxxxxxxxxxxxxxxxxxxxxxxxxxxx
            x  Element    Atom        Fractional coordinates of atoms  x
            x            Number           u          v          w      x
            x----------------------------------------------------------x
            x  Al           1         0.219996   0.444907   0.915446   x 
            x  Al           2         0.446433   0.883893   0.751022   x 
            x  Al           3         0.886441   0.111002   0.249256   x 
            x  Al           4         0.781569   0.221083   0.751621   x 
            x  Al           5         0.885394   0.445419   0.585027   x 
            x  Al           6         0.777651   0.548866   0.750608   x 
            x  Ti           1         0.103279   0.232817   0.080418   x 
            x  Ti           2         0.216155   0.108856   0.245566   x 
            x  Ti           3         0.110011   0.219632   0.413440   x 
            x  Ti           4         0.220396   0.113283   0.584501   x 
            x  Ti           5         0.109255   0.221623   0.755627   x 
            x  Ti           6         0.219503   0.114816   0.920475   x 
            x  Ti           7         0.215066   0.447222   0.246789   x 
            x  Ti           8         0.109295   0.558598   0.418778   x 
            x  Ti           9         0.222706   0.439540   0.582768   x 
            x  Ti          10         0.115625   0.554727   0.747779   x 
            x  Ti          11         0.107393   0.880274   0.081147   x 
            x  Ti          12         0.218892   0.774872   0.249152   x 
            x  Ti          13         0.113514   0.892110   0.417165   x 
            x  Ti          14         0.224863   0.783578   0.586854   x 
            x  Ti          15         0.119497   0.889742   0.754157   x 
            x  Ti          16         0.229912   0.775522   0.918082   x 
            x  Ti          17         0.447801   0.220534   0.082913   x 
            x  Ti          18         0.554973   0.109054   0.251671   x 
            x  Ti          19         0.439409   0.220787   0.414680   x 
            x  Ti          20         0.555972   0.109078   0.584947   x 
            x  Ti          21         0.445984   0.216759   0.751354   x 
            x  Ti          22         0.560802   0.103085   0.915914   x 
            x  Ti          23         0.437336   0.553747   0.080761   x 
            x  Ti          24         0.555177   0.444877   0.247306   x 
            x  Ti          25         0.444371   0.556499   0.413600   x 
            x  Ti          26         0.555187   0.443536   0.581254   x 
            x  Ti          27         0.447221   0.554440   0.750740   x 
            x  Ti          28         0.551306   0.441513   0.916646   x 
            x  Ti          29         0.439201   0.889437   0.083502   x 
            x  Ti          30         0.557427   0.783178   0.248438   x 
            x  Ti          31         0.439909   0.886969   0.420472   x 
            x  Ti          32         0.549436   0.772836   0.582393   x 
            x  Ti          33         0.553858   0.778457   0.918968   x 
            x  Ti          34         0.775398   0.217811   0.083901   x 
            x  Ti          35         0.780941   0.226238   0.419536   x 
            x  Ti          36         0.898446   0.122743   0.582247   x 
            x  Ti          37         0.781084   0.557143   0.079138   x 
            x  Ti          38         0.892695   0.446386   0.249959   x 
            x  Ti          39         0.777701   0.556095   0.418633   x 
            x  Ti          40         0.895009   0.437072   0.915384   x 
            x  Ti          41         0.785430   0.896558   0.081420   x 
            x  Ti          42         0.887957   0.781146   0.250966   x 
            x  Ti          43         0.778287   0.892939   0.418009   x 
            x  Ti          44         0.892531   0.775469   0.587315   x 
            x  Ti          45         0.775386   0.893703   0.751153   x 
            x  Ti          46         0.885543   0.776190   0.913040   x 
            x  V            1         0.116433   0.560537   0.079059   x 
            x  V            2         0.888941   0.112801   0.919001   x 
            xxxxxxxxxxxxxxxxxxxxxxxxxxxxxxxxxxxxxxxxxxxxxxxxxxxxxxxxxxxx


                         No user defined ionic velocities

                           -------------------------------
                                   Details of Species
                           -------------------------------

                               Mass of species in AMU
                                    Al   26.9815400
                                    Ti   47.8670000
                                    V   50.9415000

                          Electric Quadrupole Moment (Barn)
                                    Al    0.1466000 Isotope 27
                                    Ti    0.3020000 Isotope 47
                                    V   -0.0520000 Isotope 51

                          Files used for pseudopotentials:
                                    Al 3|2.2|2.2|1.4|4|5|5|30:31:32U2U2
                                    Ti 3|1.8|9|10|11|30U:40:31:32(qc=5.5)
                                    V 3|1.8|1.8|0.6|12|14|16|30U:40:31:32(qc=7)

                           -------------------------------
                              k-Points For BZ Sampling
                           -------------------------------
                       MP grid size for SCF calculation is  7  7  4
                            with an offset of   0.000  0.000  0.000
                       Number of kpoints used =            98

                           -------------------------------
                               Symmetry and Constraints
                           -------------------------------

                      Maximum deviation from symmetry =  0.00000         ANG

                      Number of symmetry operations   =           1
                      Number of ionic constraints     =           3
                      Point group of crystal =     1: C1, 1, 1
                      Space group of crystal =     1: P1, P 1

             Set iprint > 1 for details on symmetry rotations/translations

                         Centre of mass is constrained
             Set iprint > 1 for details of linear ionic constraints

                         Number of cell constraints= 0
                         Cell constraints are:  1 2 3 4 5 6

                         External pressure/stress (GPa)
                          0.00000   0.00000   0.00000
                                    0.00000   0.00000
                                              0.00000
 
+---------------- MEMORY AND SCRATCH DISK ESTIMATES PER PROCESS --------------+
|                                                     Memory          Disk    |
| Baseline code, static data and system overhead      591.0 MB         0.0 MB |
| BLAS internal memory storage                          0.0 MB         0.0 MB |
| Model and support data                              556.8 MB         0.0 MB |
| Electronic energy minimisation requirements         186.7 MB         0.0 MB |
| Force calculation requirements                        7.2 MB         0.0 MB |
| Stress calculation requirements                       7.7 MB         0.0 MB |
|                                               ----------------------------- |
| Approx. total storage required per process         1334.5 MB         0.0 MB |
|                                                                             |
| Requirements will fluctuate during execution and may exceed these estimates |
+-----------------------------------------------------------------------------+
Calculating finite basis set correction with  3 cut-off energies.
Calculating total energy with cut-off of  790.000 eV.
------------------------------------------------------------------------ <-- SCF
SCF loop      Energy           Fermi           Energy gain       Timer   <-- SCF
                               energy          per atom          (sec)   <-- SCF
------------------------------------------------------------------------ <-- SCF
Initial  -7.01636822E+004  0.00000000E+000                        24.55  <-- SCF
      1  -7.61441898E+004  1.15353327E+001   1.10750141E+002      98.00  <-- SCF
      2  -7.80209593E+004  9.16148610E+000   3.47549910E+001     158.85  <-- SCF
      3  -7.81361958E+004  8.86919866E+000   2.13400805E+000     222.06  <-- SCF
      4  -7.81419262E+004  8.06980631E+000   1.06119515E-001     292.80  <-- SCF
      5  -7.81431425E+004  8.23371992E+000   2.25237472E-002     370.67  <-- SCF
      6  -7.81365496E+004  8.42288279E+000  -1.22090842E-001     442.12  <-- SCF
      7  -7.81345940E+004  8.41424581E+000  -3.62151651E-002     518.12  <-- SCF
      8  -7.81347604E+004  8.36348798E+000   3.08148222E-003     590.91  <-- SCF
      9  -7.81345335E+004  8.35568637E+000  -4.20146117E-003     662.10  <-- SCF
     10  -7.81345296E+004  8.35722084E+000  -7.18120492E-005     735.32  <-- SCF
     11  -7.81344694E+004  8.35559383E+000  -1.11583142E-003     805.46  <-- SCF
     12  -7.81344723E+004  8.35494835E+000   5.41786314E-005     877.85  <-- SCF
     13  -7.81344686E+004  8.35436817E+000  -6.76584856E-005     945.48  <-- SCF
     14  -7.81344689E+004  8.35436016E+000   4.32080350E-006    1007.71  <-- SCF
     15  -7.81344686E+004  8.35440382E+000  -5.59767351E-006    1063.75  <-- SCF
     16  -7.81344685E+004  8.35440218E+000  -2.32866332E-007    1107.72  <-- SCF
     17  -7.81344685E+004  8.35440494E+000  -1.29478320E-007    1149.76  <-- SCF
------------------------------------------------------------------------ <-- SCF
 
Final energy, E             =  -78134.39534332     eV
Final free energy (E-TS)    =  -78134.46853383     eV
(energies not corrected for finite basis set)
 
NB est. 0K energy (E-0.5TS)      =  -78134.43193858     eV
 
Calculating total energy with cut-off of  795.000 eV.
------------------------------------------------------------------------ <-- SCF
SCF loop      Energy           Fermi           Energy gain       Timer   <-- SCF
                               energy          per atom          (sec)   <-- SCF
------------------------------------------------------------------------ <-- SCF
Initial  -7.81343953E+004  0.00000000E+000                      1160.95  <-- SCF
      1  -7.81344699E+004  8.35449727E+000   1.38144658E-003    1216.38  <-- SCF
      2  -7.81344701E+004  8.35449529E+000   2.77901289E-006    1272.75  <-- SCF
      3  -7.81344955E+004  8.35249918E+000   4.71245869E-004    1341.20  <-- SCF
      4  -7.81344699E+004  8.35489111E+000  -4.73548199E-004    1408.93  <-- SCF
      5  -7.81344694E+004  8.35452454E+000  -1.00166568E-005    1472.33  <-- SCF
      6  -7.81344695E+004  8.35438886E+000   1.21060400E-006    1525.78  <-- SCF
      7  -7.81344695E+004  8.35442681E+000  -1.42476840E-007    1567.63  <-- SCF
      8  -7.81344695E+004  8.35438455E+000   9.23169043E-009    1608.36  <-- SCF
------------------------------------------------------------------------ <-- SCF
 
Final energy, E             =  -78134.39625859     eV
Final free energy (E-TS)    =  -78134.46945097     eV
(energies not corrected for finite basis set)
 
NB est. 0K energy (E-0.5TS)      =  -78134.43285478     eV
 
Calculating total energy with cut-off of  800.000 eV.
------------------------------------------------------------------------ <-- SCF
SCF loop      Energy           Fermi           Energy gain       Timer   <-- SCF
                               energy          per atom          (sec)   <-- SCF
------------------------------------------------------------------------ <-- SCF
Initial  -7.81343962E+004  0.00000000E+000                      1619.57  <-- SCF
      1  -7.81344707E+004  8.35441372E+000   1.37912074E-003    1671.20  <-- SCF
      2  -7.81344708E+004  8.35441177E+000   2.08173176E-006    1725.75  <-- SCF
      3  -7.81344941E+004  8.35418567E+000   4.30521304E-004    1794.52  <-- SCF
      4  -7.81344706E+004  8.35451279E+000  -4.34950623E-004    1861.58  <-- SCF
      5  -7.81344702E+004  8.35435614E+000  -6.62023871E-006    1924.15  <-- SCF
      6  -7.81344703E+004  8.35444775E+000   1.63958039E-006    1976.56  <-- SCF
      7  -7.81344703E+004  8.35437464E+000  -9.75640683E-008    2018.41  <-- SCF
      8  -7.81344703E+004  8.35440247E+000  -2.41344794E-009    2057.61  <-- SCF
------------------------------------------------------------------------ <-- SCF
 
Final energy, E             =  -78134.39711444     eV
Final free energy (E-TS)    =  -78134.47030807     eV
(energies not corrected for finite basis set)
 
NB est. 0K energy (E-0.5TS)      =  -78134.43371125     eV
 
 For future reference: finite basis dEtot/dlog(Ecut) =      -0.141276eV
 Total energy corrected for finite basis set =  -78134.470313 eV

 ************************** Forces **************************
 *                                                          *
 *               Cartesian components (eV/A)                *
 * -------------------------------------------------------- *
 *                         x            y            z      *
 *                                                          *
 * Al              1      0.03717     -0.02146      0.06005 *
 * Al              2     -0.01864     -0.02256     -0.07307 *
 * Al              3      0.00986     -0.01084      0.07515 *
 * Al              4     -0.04778      0.04074     -0.03406 *
 * Al              5     -0.01857     -0.06664      0.03730 *
 * Al              6      0.05494      0.12399      0.03608 *
 * Ti              1      0.01372      0.02667     -0.02963 *
 * Ti              2      0.00964      0.02394      0.02129 *
 * Ti              3      0.01777     -0.03492      0.00683 *
 * Ti              4     -0.01397      0.01070     -0.02379 *
 * Ti              5      0.03339     -0.07785     -0.10008 *
 * Ti              6      0.04251      0.03605      0.00581 *
 * Ti              7     -0.02170      0.01011      0.01611 *
 * Ti              8      0.00797     -0.03368     -0.06923 *
 * Ti              9      0.04878     -0.05466      0.05468 *
 * Ti             10     -0.06026      0.03306      0.06066 *
 * Ti             11     -0.01419     -0.06272     -0.02537 *
 * Ti             12     -0.01981      0.00240      0.01313 *
 * Ti             13      0.01324      0.01692      0.03005 *
 * Ti             14      0.04705      0.00497      0.04537 *
 * Ti             15     -0.04906      0.08487     -0.03646 *
 * Ti             16     -0.04046      0.12534     -0.01167 *
 * Ti             17      0.02067      0.00487     -0.02225 *
 * Ti             18      0.02926      0.01942     -0.09990 *
 * Ti             19     -0.01376      0.02465      0.02829 *
 * Ti             20     -0.05772      0.06657     -0.11197 *
 * Ti             21     -0.00153     -0.00617      0.00378 *
 * Ti             22     -0.02506      0.13833      0.11466 *
 * Ti             23      0.00550      0.01476     -0.06757 *
 * Ti             24     -0.03049     -0.00719      0.00445 *
 * Ti             25      0.03048      0.00438      0.01383 *
 * Ti             26      0.00111      0.01926     -0.05923 *
 * Ti             27      0.06557      0.00462      0.01702 *
 * Ti             28     -0.01624     -0.00143      0.08352 *
 * Ti             29     -0.13898      0.01418     -0.01033 *
 * Ti             30      0.01813     -0.01216     -0.00164 *
 * Ti             31     -0.02905     -0.01270     -0.04569 *
 * Ti             32     -0.03811     -0.05673     -0.03403 *
 * Ti             33      0.07042     -0.11595      0.01815 *
 * Ti             34      0.01327     -0.03290     -0.01836 *
 * Ti             35     -0.00266     -0.01093      0.00635 *
 * Ti             36     -0.03359     -0.06649     -0.02054 *
 * Ti             37     -0.01647     -0.01443     -0.00524 *
 * Ti             38      0.01508     -0.03458     -0.09442 *
 * Ti             39      0.00615     -0.02977      0.10643 *
 * Ti             40     -0.03402      0.10628     -0.00751 *
 * Ti             41     -0.05140      0.04631     -0.01188 *
 * Ti             42      0.01240     -0.00864     -0.02260 *
 * Ti             43     -0.03404     -0.00859     -0.05817 *
 * Ti             44     -0.02609      0.00626     -0.05210 *
 * Ti             45     -0.05568     -0.10935     -0.01770 *
 * Ti             46      0.02245     -0.00529      0.11764 *
 * V               1      0.07470      0.06709      0.31987 *
 * V               2      0.18810     -0.15812     -0.13204 *
 *                                                          *
 ************************************************************

 ***************** Stress Tensor *****************
 *                                               *
 *          Cartesian components (GPa)           *
 * --------------------------------------------- *
 *             x             y             z     *
 *                                               *
 *  x      0.654161     -0.073865     -0.164294  *
 *  y     -0.073865      0.815048     -0.071882  *
 *  z     -0.164294     -0.071882      1.909932  *
 *                                               *
 *  Pressure:   -1.1264                          *
 *                                               *
 *************************************************

 Pseudo atomic calculation performed for Al 3s2 3p1

 Converged in 15 iterations to a total energy of -107.1308 eV

 Pseudo atomic calculation performed for Ti 3s2 3p6 3d2 4s2

 Converged in 34 iterations to a total energy of -1587.0236 eV

 Pseudo atomic calculation performed for V 3s2 3p6 3d3 4s2

 Converged in 35 iterations to a total energy of -2065.7874 eV
Charge spilling parameter for spin component 1 = 0.09%

            Orbital Populations       
     Ion    Atom   Orbital             Charge
  -------------------------------------------
     Al     1      S                    0.930
     Al     1      Px                   0.684
     Al     1      Py                   0.688
     Al     1      Pz                   0.704
     Al     2      S                    0.949
     Al     2      Px                   0.646
     Al     2      Py                   0.707
     Al     2      Pz                   0.707
     Al     3      S                    0.938
     Al     3      Px                   0.693
     Al     3      Py                   0.688
     Al     3      Pz                   0.706
     Al     4      S                    0.968
     Al     4      Px                   0.660
     Al     4      Py                   0.681
     Al     4      Pz                   0.681
     Al     5      S                    0.964
     Al     5      Px                   0.700
     Al     5      Py                   0.703
     Al     5      Pz                   0.641
     Al     6      S                    0.970
     Al     6      Px                   0.683
     Al     6      Py                   0.656
     Al     6      Pz                   0.685
     Ti     1      S                    2.003
     Ti     1      Px                   2.006
     Ti     1      Py                   2.005
     Ti     1      Pz                   2.006
     Ti     1      S                    0.307
     Ti     1      Dzz                  0.607
     Ti     1      Dzy                  0.462
     Ti     1      Dzx                  0.508
     Ti     1      Dxx-yy               0.573
     Ti     1      Dxy                  0.570
     Ti     1      Px                   0.320
     Ti     1      Py                   0.321
     Ti     1      Pz                   0.283
     Ti     2      S                    2.002
     Ti     2      Px                   2.005
     Ti     2      Py                   2.005
     Ti     2      Pz                   2.004
     Ti     2      S                    0.321
     Ti     2      Dzz                  0.596
     Ti     2      Dzy                  0.470
     Ti     2      Dzx                  0.498
     Ti     2      Dxx-yy               0.571
     Ti     2      Dxy                  0.572
     Ti     2      Px                   0.320
     Ti     2      Py                   0.315
     Ti     2      Pz                   0.316
     Ti     3      S                    2.003
     Ti     3      Px                   2.005
     Ti     3      Py                   2.005
     Ti     3      Pz                   2.005
     Ti     3      S                    0.309
     Ti     3      Dzz                  0.610
     Ti     3      Dzy                  0.489
     Ti     3      Dzx                  0.461
     Ti     3      Dxx-yy               0.576
     Ti     3      Dxy                  0.567
     Ti     3      Px                   0.317
     Ti     3      Py                   0.331
     Ti     3      Pz                   0.301
     Ti     4      S                    2.003
     Ti     4      Px                   2.005
     Ti     4      Py                   2.005
     Ti     4      Pz                   2.005
     Ti     4      S                    0.304
     Ti     4      Dzz                  0.614
     Ti     4      Dzy                  0.483
     Ti     4      Dzx                  0.458
     Ti     4      Dxx-yy               0.577
     Ti     4      Dxy                  0.565
     Ti     4      Px                   0.326
     Ti     4      Py                   0.334
     Ti     4      Pz                   0.337
     Ti     5      S                    2.002
     Ti     5      Px                   2.005
     Ti     5      Py                   2.005
     Ti     5      Pz                   2.005
     Ti     5      S                    0.310
     Ti     5      Dzz                  0.627
     Ti     5      Dzy                  0.490
     Ti     5      Dzx                  0.461
     Ti     5      Dxx-yy               0.588
     Ti     5      Dxy                  0.535
     Ti     5      Px                   0.323
     Ti     5      Py                   0.294
     Ti     5      Pz                   0.315
     Ti     6      S                    2.002
     Ti     6      Px                   2.005
     Ti     6      Py                   2.005
     Ti     6      Pz                   2.005
     Ti     6      S                    0.318
     Ti     6      Dzz                  0.592
     Ti     6      Dzy                  0.501
     Ti     6      Dzx                  0.478
     Ti     6      Dxx-yy               0.566
     Ti     6      Dxy                  0.568
     Ti     6      Px                   0.319
     Ti     6      Py                   0.324
     Ti     6      Pz                   0.321
     Ti     7      S                    2.002
     Ti     7      Px                   2.005
     Ti     7      Py                   2.005
     Ti     7      Pz                   2.005
     Ti     7      S                    0.321
     Ti     7      Dzz                  0.587
     Ti     7      Dzy                  0.506
     Ti     7      Dzx                  0.474
     Ti     7      Dxx-yy               0.534
     Ti     7      Dxy                  0.601
     Ti     7      Px                   0.301
     Ti     7      Py                   0.339
     Ti     7      Pz                   0.331
     Ti     8      S                    2.003
     Ti     8      Px                   2.005
     Ti     8      Py                   2.005
     Ti     8      Pz                   2.005
     Ti     8      S                    0.315
     Ti     8      Dzz                  0.617
     Ti     8      Dzy                  0.460
     Ti     8      Dzx                  0.477
     Ti     8      Dxx-yy               0.574
     Ti     8      Dxy                  0.578
     Ti     8      Px                   0.322
     Ti     8      Py                   0.330
     Ti     8      Pz                   0.289
     Ti     9      S                    2.002
     Ti     9      Px                   2.005
     Ti     9      Py                   2.005
     Ti     9      Pz                   2.005
     Ti     9      S                    0.324
     Ti     9      Dzz                  0.590
     Ti     9      Dzy                  0.454
     Ti     9      Dzx                  0.519
     Ti     9      Dxx-yy               0.550
     Ti     9      Dxy                  0.576
     Ti     9      Px                   0.324
     Ti     9      Py                   0.309
     Ti     9      Pz                   0.330
     Ti    10      S                    2.002
     Ti    10      Px                   2.005
     Ti    10      Py                   2.005
     Ti    10      Pz                   2.005
     Ti    10      S                    0.340
     Ti    10      Dzz                  0.626
     Ti    10      Dzy                  0.490
     Ti    10      Dzx                  0.480
     Ti    10      Dxx-yy               0.544
     Ti    10      Dxy                  0.610
     Ti    10      Px                   0.278
     Ti    10      Py                   0.308
     Ti    10      Pz                   0.307
     Ti    11      S                    2.003
     Ti    11      Px                   2.005
     Ti    11      Py                   2.005
     Ti    11      Pz                   2.005
     Ti    11      S                    0.316
     Ti    11      Dzz                  0.598
     Ti    11      Dzy                  0.498
     Ti    11      Dzx                  0.464
     Ti    11      Dxx-yy               0.574
     Ti    11      Dxy                  0.567
     Ti    11      Px                   0.329
     Ti    11      Py                   0.340
     Ti    11      Pz                   0.320
     Ti    12      S                    2.003
     Ti    12      Px                   2.005
     Ti    12      Py                   2.005
     Ti    12      Pz                   2.005
     Ti    12      S                    0.298
     Ti    12      Dzz                  0.618
     Ti    12      Dzy                  0.459
     Ti    12      Dzx                  0.466
     Ti    12      Dxx-yy               0.578
     Ti    12      Dxy                  0.576
     Ti    12      Px                   0.328
     Ti    12      Py                   0.324
     Ti    12      Pz                   0.343
     Ti    13      S                    2.003
     Ti    13      Px                   2.005
     Ti    13      Py                   2.005
     Ti    13      Pz                   2.005
     Ti    13      S                    0.312
     Ti    13      Dzz                  0.593
     Ti    13      Dzy                  0.479
     Ti    13      Dzx                  0.474
     Ti    13      Dxx-yy               0.572
     Ti    13      Dxy                  0.569
     Ti    13      Px                   0.326
     Ti    13      Py                   0.334
     Ti    13      Pz                   0.317
     Ti    14      S                    2.003
     Ti    14      Px                   2.005
     Ti    14      Py                   2.005
     Ti    14      Pz                   2.006
     Ti    14      S                    0.325
     Ti    14      Dzz                  0.617
     Ti    14      Dzy                  0.490
     Ti    14      Dzx                  0.484
     Ti    14      Dxx-yy               0.544
     Ti    14      Dxy                  0.581
     Ti    14      Px                   0.290
     Ti    14      Py                   0.343
     Ti    14      Pz                   0.305
     Ti    15      S                    2.002
     Ti    15      Px                   2.005
     Ti    15      Py                   2.005
     Ti    15      Pz                   2.005
     Ti    15      S                    0.334
     Ti    15      Dzz                  0.583
     Ti    15      Dzy                  0.475
     Ti    15      Dzx                  0.519
     Ti    15      Dxx-yy               0.546
     Ti    15      Dxy                  0.586
     Ti    15      Px                   0.285
     Ti    15      Py                   0.322
     Ti    15      Pz                   0.334
     Ti    16      S                    2.003
     Ti    16      Px                   2.005
     Ti    16      Py                   2.005
     Ti    16      Pz                   2.005
     Ti    16      S                    0.308
     Ti    16      Dzz                  0.604
     Ti    16      Dzy                  0.488
     Ti    16      Dzx                  0.482
     Ti    16      Dxx-yy               0.587
     Ti    16      Dxy                  0.555
     Ti    16      Px                   0.324
     Ti    16      Py                   0.301
     Ti    16      Pz                   0.302
     Ti    17      S                    2.003
     Ti    17      Px                   2.005
     Ti    17      Py                   2.005
     Ti    17      Pz                   2.005
     Ti    17      S                    0.313
     Ti    17      Dzz                  0.596
     Ti    17      Dzy                  0.501
     Ti    17      Dzx                  0.465
     Ti    17      Dxx-yy               0.579
     Ti    17      Dxy                  0.557
     Ti    17      Px                   0.329
     Ti    17      Py                   0.344
     Ti    17      Pz                   0.323
     Ti    18      S                    2.003
     Ti    18      Px                   2.005
     Ti    18      Py                   2.005
     Ti    18      Pz                   2.005
     Ti    18      S                    0.321
     Ti    18      Dzz                  0.621
     Ti    18      Dzy                  0.489
     Ti    18      Dzx                  0.463
     Ti    18      Dxx-yy               0.599
     Ti    18      Dxy                  0.541
     Ti    18      Px                   0.334
     Ti    18      Py                   0.304
     Ti    18      Pz                   0.322
     Ti    19      S                    2.003
     Ti    19      Px                   2.005
     Ti    19      Py                   2.005
     Ti    19      Pz                   2.005
     Ti    19      S                    0.316
     Ti    19      Dzz                  0.590
     Ti    19      Dzy                  0.475
     Ti    19      Dzx                  0.489
     Ti    19      Dxx-yy               0.563
     Ti    19      Dxy                  0.577
     Ti    19      Px                   0.331
     Ti    19      Py                   0.331
     Ti    19      Pz                   0.328
     Ti    20      S                    2.002
     Ti    20      Px                   2.005
     Ti    20      Py                   2.005
     Ti    20      Pz                   2.005
     Ti    20      S                    0.326
     Ti    20      Dzz                  0.590
     Ti    20      Dzy                  0.499
     Ti    20      Dzx                  0.489
     Ti    20      Dxx-yy               0.545
     Ti    20      Dxy                  0.598
     Ti    20      Px                   0.292
     Ti    20      Py                   0.331
     Ti    20      Pz                   0.280
     Ti    21      S                    2.002
     Ti    21      Px                   2.005
     Ti    21      Py                   2.005
     Ti    21      Pz                   2.004
     Ti    21      S                    0.355
     Ti    21      Dzz                  0.608
     Ti    21      Dzy                  0.477
     Ti    21      Dzx                  0.493
     Ti    21      Dxx-yy               0.544
     Ti    21      Dxy                  0.587
     Ti    21      Px                   0.286
     Ti    21      Py                   0.312
     Ti    21      Pz                   0.341
     Ti    22      S                    2.002
     Ti    22      Px                   2.005
     Ti    22      Py                   2.005
     Ti    22      Pz                   2.005
     Ti    22      S                    0.307
     Ti    22      Dzz                  0.619
     Ti    22      Dzy                  0.469
     Ti    22      Dzx                  0.477
     Ti    22      Dxx-yy               0.571
     Ti    22      Dxy                  0.573
     Ti    22      Px                   0.324
     Ti    22      Py                   0.331
     Ti    22      Pz                   0.277
     Ti    23      S                    2.002
     Ti    23      Px                   2.005
     Ti    23      Py                   2.005
     Ti    23      Pz                   2.005
     Ti    23      S                    0.306
     Ti    23      Dzz                  0.611
     Ti    23      Dzy                  0.481
     Ti    23      Dzx                  0.486
     Ti    23      Dxx-yy               0.562
     Ti    23      Dxy                  0.568
     Ti    23      Px                   0.322
     Ti    23      Py                   0.335
     Ti    23      Pz                   0.298
     Ti    24      S                    2.002
     Ti    24      Px                   2.004
     Ti    24      Py                   2.004
     Ti    24      Pz                   2.004
     Ti    24      S                    0.313
     Ti    24      Dzz                  0.614
     Ti    24      Dzy                  0.470
     Ti    24      Dzx                  0.475
     Ti    24      Dxx-yy               0.557
     Ti    24      Dxy                  0.570
     Ti    24      Px                   0.331
     Ti    24      Py                   0.331
     Ti    24      Pz                   0.330
     Ti    25      S                    2.003
     Ti    25      Px                   2.005
     Ti    25      Py                   2.005
     Ti    25      Pz                   2.005
     Ti    25      S                    0.311
     Ti    25      Dzz                  0.603
     Ti    25      Dzy                  0.483
     Ti    25      Dzx                  0.478
     Ti    25      Dxx-yy               0.568
     Ti    25      Dxy                  0.574
     Ti    25      Px                   0.333
     Ti    25      Py                   0.330
     Ti    25      Pz                   0.332
     Ti    26      S                    2.003
     Ti    26      Px                   2.005
     Ti    26      Py                   2.005
     Ti    26      Pz                   2.005
     Ti    26      S                    0.328
     Ti    26      Dzz                  0.592
     Ti    26      Dzy                  0.522
     Ti    26      Dzx                  0.464
     Ti    26      Dxx-yy               0.598
     Ti    26      Dxy                  0.547
     Ti    26      Px                   0.317
     Ti    26      Py                   0.305
     Ti    26      Pz                   0.311
     Ti    27      S                    2.002
     Ti    27      Px                   2.005
     Ti    27      Py                   2.005
     Ti    27      Pz                   2.005
     Ti    27      S                    0.324
     Ti    27      Dzz                  0.619
     Ti    27      Dzy                  0.484
     Ti    27      Dzx                  0.480
     Ti    27      Dxx-yy               0.592
     Ti    27      Dxy                  0.551
     Ti    27      Px                   0.317
     Ti    27      Py                   0.278
     Ti    27      Pz                   0.314
     Ti    28      S                    2.003
     Ti    28      Px                   2.005
     Ti    28      Py                   2.005
     Ti    28      Pz                   2.005
     Ti    28      S                    0.328
     Ti    28      Dzz                  0.602
     Ti    28      Dzy                  0.485
     Ti    28      Dzx                  0.484
     Ti    28      Dxx-yy               0.581
     Ti    28      Dxy                  0.558
     Ti    28      Px                   0.317
     Ti    28      Py                   0.320
     Ti    28      Pz                   0.303
     Ti    29      S                    2.003
     Ti    29      Px                   2.006
     Ti    29      Py                   2.005
     Ti    29      Pz                   2.005
     Ti    29      S                    0.303
     Ti    29      Dzz                  0.587
     Ti    29      Dzy                  0.479
     Ti    29      Dzx                  0.502
     Ti    29      Dxx-yy               0.564
     Ti    29      Dxy                  0.554
     Ti    29      Px                   0.346
     Ti    29      Py                   0.334
     Ti    29      Pz                   0.304
     Ti    30      S                    2.003
     Ti    30      Px                   2.005
     Ti    30      Py                   2.005
     Ti    30      Pz                   2.005
     Ti    30      S                    0.331
     Ti    30      Dzz                  0.604
     Ti    30      Dzy                  0.483
     Ti    30      Dzx                  0.473
     Ti    30      Dxx-yy               0.550
     Ti    30      Dxy                  0.603
     Ti    30      Px                   0.301
     Ti    30      Py                   0.335
     Ti    30      Pz                   0.322
     Ti    31      S                    2.003
     Ti    31      Px                   2.005
     Ti    31      Py                   2.005
     Ti    31      Pz                   2.005
     Ti    31      S                    0.311
     Ti    31      Dzz                  0.583
     Ti    31      Dzy                  0.483
     Ti    31      Dzx                  0.489
     Ti    31      Dxx-yy               0.563
     Ti    31      Dxy                  0.571
     Ti    31      Px                   0.335
     Ti    31      Py                   0.339
     Ti    31      Pz                   0.324
     Ti    32      S                    2.002
     Ti    32      Px                   2.004
     Ti    32      Py                   2.005
     Ti    32      Pz                   2.005
     Ti    32      S                    0.317
     Ti    32      Dzz                  0.600
     Ti    32      Dzy                  0.484
     Ti    32      Dzx                  0.490
     Ti    32      Dxx-yy               0.568
     Ti    32      Dxy                  0.544
     Ti    32      Px                   0.334
     Ti    32      Py                   0.321
     Ti    32      Pz                   0.300
     Ti    33      S                    2.003
     Ti    33      Px                   2.005
     Ti    33      Py                   2.006
     Ti    33      Pz                   2.006
     Ti    33      S                    0.328
     Ti    33      Dzz                  0.599
     Ti    33      Dzy                  0.490
     Ti    33      Dzx                  0.479
     Ti    33      Dxx-yy               0.560
     Ti    33      Dxy                  0.581
     Ti    33      Px                   0.305
     Ti    33      Py                   0.325
     Ti    33      Pz                   0.302
     Ti    34      S                    2.002
     Ti    34      Px                   2.005
     Ti    34      Py                   2.005
     Ti    34      Pz                   2.005
     Ti    34      S                    0.311
     Ti    34      Dzz                  0.596
     Ti    34      Dzy                  0.498
     Ti    34      Dzx                  0.472
     Ti    34      Dxx-yy               0.572
     Ti    34      Dxy                  0.554
     Ti    34      Px                   0.341
     Ti    34      Py                   0.316
     Ti    34      Pz                   0.304
     Ti    35      S                    2.002
     Ti    35      Px                   2.005
     Ti    35      Py                   2.005
     Ti    35      Pz                   2.005
     Ti    35      S                    0.317
     Ti    35      Dzz                  0.613
     Ti    35      Dzy                  0.481
     Ti    35      Dzx                  0.480
     Ti    35      Dxx-yy               0.576
     Ti    35      Dxy                  0.566
     Ti    35      Px                   0.329
     Ti    35      Py                   0.317
     Ti    35      Pz                   0.282
     Ti    36      S                    2.002
     Ti    36      Px                   2.005
     Ti    36      Py                   2.005
     Ti    36      Pz                   2.005
     Ti    36      S                    0.325
     Ti    36      Dzz                  0.590
     Ti    36      Dzy                  0.473
     Ti    36      Dzx                  0.519
     Ti    36      Dxx-yy               0.558
     Ti    36      Dxy                  0.570
     Ti    36      Px                   0.329
     Ti    36      Py                   0.305
     Ti    36      Pz                   0.318
     Ti    37      S                    2.002
     Ti    37      Px                   2.005
     Ti    37      Py                   2.004
     Ti    37      Pz                   2.004
     Ti    37      S                    0.315
     Ti    37      Dzz                  0.597
     Ti    37      Dzy                  0.472
     Ti    37      Dzx                  0.483
     Ti    37      Dxx-yy               0.560
     Ti    37      Dxy                  0.578
     Ti    37      Px                   0.332
     Ti    37      Py                   0.338
     Ti    37      Pz                   0.331
     Ti    38      S                    2.002
     Ti    38      Px                   2.005
     Ti    38      Py                   2.005
     Ti    38      Pz                   2.004
     Ti    38      S                    0.321
     Ti    38      Dzz                  0.598
     Ti    38      Dzy                  0.485
     Ti    38      Dzx                  0.473
     Ti    38      Dxx-yy               0.603
     Ti    38      Dxy                  0.540
     Ti    38      Px                   0.334
     Ti    38      Py                   0.299
     Ti    38      Pz                   0.326
     Ti    39      S                    2.002
     Ti    39      Px                   2.005
     Ti    39      Py                   2.005
     Ti    39      Pz                   2.005
     Ti    39      S                    0.314
     Ti    39      Dzz                  0.613
     Ti    39      Dzy                  0.466
     Ti    39      Dzx                  0.478
     Ti    39      Dxx-yy               0.585
     Ti    39      Dxy                  0.568
     Ti    39      Px                   0.331
     Ti    39      Py                   0.317
     Ti    39      Pz                   0.306
     Ti    40      S                    2.002
     Ti    40      Px                   2.005
     Ti    40      Py                   2.005
     Ti    40      Pz                   2.005
     Ti    40      S                    0.313
     Ti    40      Dzz                  0.624
     Ti    40      Dzy                  0.465
     Ti    40      Dzx                  0.491
     Ti    40      Dxx-yy               0.598
     Ti    40      Dxy                  0.542
     Ti    40      Px                   0.327
     Ti    40      Py                   0.288
     Ti    40      Pz                   0.292
     Ti    41      S                    2.003
     Ti    41      Px                   2.005
     Ti    41      Py                   2.005
     Ti    41      Pz                   2.005
     Ti    41      S                    0.301
     Ti    41      Dzz                  0.602
     Ti    41      Dzy                  0.481
     Ti    41      Dzx                  0.487
     Ti    41      Dxx-yy               0.567
     Ti    41      Dxy                  0.573
     Ti    41      Px                   0.317
     Ti    41      Py                   0.323
     Ti    41      Pz                   0.311
     Ti    42      S                    2.003
     Ti    42      Px                   2.005
     Ti    42      Py                   2.005
     Ti    42      Pz                   2.005
     Ti    42      S                    0.329
     Ti    42      Dzz                  0.612
     Ti    42      Dzy                  0.457
     Ti    42      Dzx                  0.494
     Ti    42      Dxx-yy               0.585
     Ti    42      Dxy                  0.567
     Ti    42      Px                   0.322
     Ti    42      Py                   0.315
     Ti    42      Pz                   0.325
     Ti    43      S                    2.002
     Ti    43      Px                   2.005
     Ti    43      Py                   2.005
     Ti    43      Pz                   2.005
     Ti    43      S                    0.314
     Ti    43      Dzz                  0.603
     Ti    43      Dzy                  0.479
     Ti    43      Dzx                  0.483
     Ti    43      Dxx-yy               0.571
     Ti    43      Dxy                  0.572
     Ti    43      Px                   0.324
     Ti    43      Py                   0.330
     Ti    43      Pz                   0.305
     Ti    44      S                    2.002
     Ti    44      Px                   2.005
     Ti    44      Py                   2.004
     Ti    44      Pz                   2.004
     Ti    44      S                    0.329
     Ti    44      Dzz                  0.601
     Ti    44      Dzy                  0.495
     Ti    44      Dzx                  0.484
     Ti    44      Dxx-yy               0.595
     Ti    44      Dxy                  0.547
     Ti    44      Px                   0.318
     Ti    44      Py                   0.304
     Ti    44      Pz                   0.320
     Ti    45      S                    2.002
     Ti    45      Px                   2.005
     Ti    45      Py                   2.005
     Ti    45      Pz                   2.004
     Ti    45      S                    0.334
     Ti    45      Dzz                  0.586
     Ti    45      Dzy                  0.497
     Ti    45      Dzx                  0.485
     Ti    45      Dxx-yy               0.629
     Ti    45      Dxy                  0.525
     Ti    45      Px                   0.336
     Ti    45      Py                   0.258
     Ti    45      Pz                   0.347
     Ti    46      S                    2.002
     Ti    46      Px                   2.005
     Ti    46      Py                   2.004
     Ti    46      Pz                   2.005
     Ti    46      S                    0.316
     Ti    46      Dzz                  0.613
     Ti    46      Dzy                  0.480
     Ti    46      Dzx                  0.487
     Ti    46      Dxx-yy               0.551
     Ti    46      Dxy                  0.574
     Ti    46      Px                   0.326
     Ti    46      Py                   0.338
     Ti    46      Pz                   0.307
      V     1      S                    2.001
      V     1      Px                   2.003
      V     1      Py                   2.003
      V     1      Pz                   2.003
      V     1      Dzz                  0.874
      V     1      Dzy                  0.632
      V     1      Dzx                  0.671
      V     1      Dxx-yy               0.764
      V     1      Dxy                  0.779
      V     1      S                    0.372
      V     1      Px                   0.339
      V     1      Py                   0.317
      V     1      Pz                   0.303
      V     2      S                    2.001
      V     2      Px                   2.003
      V     2      Py                   2.003
      V     2      Pz                   2.003
      V     2      Dzz                  0.807
      V     2      Dzy                  0.644
      V     2      Dzx                  0.738
      V     2      Dxx-yy               0.695
      V     2      Dxy                  0.840
      V     2      S                    0.382
      V     2      Px                   0.307
      V     2      Py                   0.329
      V     2      Pz                   0.295
  -------------------------------------------
                           Total:     596.000
  -------------------------------------------

     Atomic Populations (Mulliken)
     -----------------------------
Species          Ion     s       p       d       f      Total   Charge (e)
==========================================================================
  Al              1     0.930   2.075   0.000   0.000   3.005    -0.005
  Al              2     0.949   2.059   0.000   0.000   3.008    -0.008
  Al              3     0.938   2.087   0.000   0.000   3.025    -0.025
  Al              4     0.968   2.022   0.000   0.000   2.990     0.010
  Al              5     0.964   2.043   0.000   0.000   3.007    -0.007
  Al              6     0.970   2.024   0.000   0.000   2.994     0.006
  Ti              1     2.310   6.939   2.719   0.000  11.968     0.032
  Ti              2     2.323   6.965   2.707   0.000  11.996     0.004
  Ti              3     2.312   6.964   2.703   0.000  11.980     0.020
  Ti              4     2.307   7.012   2.697   0.000  12.016    -0.016
  Ti              5     2.312   6.946   2.702   0.000  11.960     0.040
  Ti              6     2.321   6.977   2.704   0.000  12.002    -0.002
  Ti              7     2.324   6.984   2.702   0.000  12.010    -0.010
  Ti              8     2.318   6.957   2.706   0.000  11.981     0.019
  Ti              9     2.326   6.977   2.689   0.000  11.992     0.008
  Ti             10     2.343   6.909   2.750   0.000  12.002    -0.002
  Ti             11     2.319   7.006   2.701   0.000  12.026    -0.026
  Ti             12     2.301   7.010   2.698   0.000  12.009    -0.009
  Ti             13     2.315   6.993   2.686   0.000  11.994     0.006
  Ti             14     2.328   6.955   2.716   0.000  11.999     0.001
  Ti             15     2.336   6.956   2.710   0.000  12.002    -0.002
  Ti             16     2.311   6.943   2.716   0.000  11.970     0.030
  Ti             17     2.316   7.011   2.698   0.000  12.025    -0.025
  Ti             18     2.324   6.974   2.713   0.000  12.011    -0.011
  Ti             19     2.319   7.005   2.695   0.000  12.019    -0.019
  Ti             20     2.328   6.918   2.722   0.000  11.968     0.032
  Ti             21     2.357   6.952   2.708   0.000  12.018    -0.018
  Ti             22     2.310   6.947   2.709   0.000  11.965     0.035
  Ti             23     2.309   6.969   2.708   0.000  11.987     0.013
  Ti             24     2.315   7.004   2.687   0.000  12.007    -0.007
  Ti             25     2.313   7.010   2.706   0.000  12.029    -0.029
  Ti             26     2.331   6.948   2.723   0.000  12.002    -0.002
  Ti             27     2.326   6.924   2.726   0.000  11.976     0.024
  Ti             28     2.330   6.955   2.711   0.000  11.996     0.004
  Ti             29     2.306   7.001   2.687   0.000  11.993     0.007
  Ti             30     2.334   6.973   2.713   0.000  12.020    -0.020
  Ti             31     2.314   7.013   2.689   0.000  12.016    -0.016
  Ti             32     2.319   6.969   2.686   0.000  11.974     0.026
  Ti             33     2.331   6.948   2.709   0.000  11.988     0.012
  Ti             34     2.313   6.976   2.693   0.000  11.982     0.018
  Ti             35     2.319   6.942   2.717   0.000  11.979     0.021
  Ti             36     2.328   6.966   2.710   0.000  12.004    -0.004
  Ti             37     2.317   7.014   2.690   0.000  12.021    -0.021
  Ti             38     2.324   6.972   2.699   0.000  11.995     0.005
  Ti             39     2.317   6.969   2.710   0.000  11.995     0.005
  Ti             40     2.315   6.922   2.720   0.000  11.957     0.043
  Ti             41     2.304   6.967   2.710   0.000  11.980     0.020
  Ti             42     2.331   6.976   2.715   0.000  12.022    -0.022
  Ti             43     2.317   6.973   2.708   0.000  11.997     0.003
  Ti             44     2.331   6.956   2.723   0.000  12.010    -0.010
  Ti             45     2.336   6.954   2.721   0.000  12.012    -0.012
  Ti             46     2.319   6.984   2.705   0.000  12.008    -0.008
  V               1     2.373   6.967   3.720   0.000  13.060    -0.060
  V               2     2.383   6.940   3.724   0.000  13.047    -0.047
==========================================================================

                 Bond                   Population      Length (A)
======================================================================
             Ti 16 -- V 1                    0.23        2.78343
             Ti 1  -- V 2                    0.19        2.78735
             Ti 9  -- Ti 36                  0.23        2.80159
             Ti 1  -- Ti 34                  0.20        2.80242
             Ti 41 -- V 2                    0.21        2.80520
              Al 1 -- Ti 40                  0.26        2.80636
              Al 1 -- Ti 5                   0.21        2.80714
             Ti 22 -- Ti 33                  0.24        2.80731
             Ti 40 -- V 2                    0.17        2.80803
             Ti 1  -- V 1                    0.26        2.80821
             Ti 16 -- Ti 29                  0.15        2.81037
             Ti 7  -- Ti 38                  0.19        2.81382
              Al 1 -- Ti 1                   0.21        2.81758
             Ti 16 -- Ti 33                  0.17        2.81817
              Al 5 -- Al 6                   0.27        2.81926
              Al 4 -- Ti 40                  0.26        2.81953
             Ti 22 -- V 2                    0.27        2.82635
             Ti 35 -- Ti 36                  0.16        2.83003
              Al 1 -- V 1                    0.21        2.83204
             Ti 31 -- Ti 32                  0.14        2.83250
              Al 2 -- Ti 45                  0.24        2.83274
             Ti 5  -- V 2                    0.17        2.83385
              Al 4 -- Ti 45                  0.27        2.83426
             Ti 23 -- V 1                    0.22        2.83452
             Ti 11 -- V 1                    0.29        2.83457
             Ti 26 -- Ti 39                  0.15        2.83517
             Ti 23 -- Ti 33                  0.15        2.83598
             Ti 5  -- Ti 6                   0.12        2.83625
             Ti 11 -- Ti 37                  0.27        2.83788
             Ti 14 -- Ti 15                  0.13        2.84058
             Ti 4  -- Ti 9                   0.24        2.84113
             Ti 1  -- Ti 7                   0.14        2.84243
              Al 1 -- Ti 23                  0.22        2.84280
             Ti 34 -- V 2                    0.17        2.84363
             Ti 40 -- V 1                    0.21        2.84437
             Ti 14 -- Ti 31                  0.16        2.84528
             Ti 10 -- Ti 14                  0.20        2.84534
              Al 3 -- Ti 34                  0.21        2.84556
             Ti 15 -- Ti 46                  0.15        2.84633
              Al 2 -- Ti 22                  0.20        2.84641
             Ti 7  -- Ti 12                  0.22        2.84687
              Al 4 -- Ti 22                  0.22        2.84704
              Al 1 -- Ti 16                  0.26        2.84706
             Ti 7  -- V 1                    0.18        2.84803
             Ti 27 -- Ti 28                  0.15        2.84839
             Ti 29 -- V 1                    0.24        2.84843
              Al 2 -- Ti 14                  0.20        2.84989
             Ti 45 -- Ti 46                  0.13        2.85047
             Ti 34 -- Ti 41                  0.19        2.85240
              Al 5 -- Ti 35                  0.22        2.85324
              Al 2 -- Ti 33                  0.23        2.85372
              Al 5 -- Ti 44                  0.28        2.85372
             Ti 20 -- Ti 31                  0.14        2.85464
              Al 6 -- Ti 46                  0.23        2.85525
             Ti 15 -- Ti 21                  0.29        2.85567
             Ti 4  -- Ti 36                  0.23        2.85584
             Ti 22 -- Ti 29                  0.15        2.85585
              Al 1 -- Ti 10                  0.23        2.85627
             Ti 17 -- Ti 29                  0.24        2.85654
             Ti 20 -- Ti 21                  0.21        2.85675
              Al 3 -- Ti 3                   0.20        2.85767
             Ti 18 -- Ti 30                  0.22        2.85888
             Ti 1  -- Ti 6                   0.16        2.85911
              Al 4 -- V 2                    0.21        2.85917
             Ti 3  -- Ti 36                  0.13        2.85923
              Al 2 -- Ti 16                  0.22        2.85924
             Ti 15 -- Ti 16                  0.15        2.85944
             Ti 37 -- Ti 46                  0.17        2.85957
              Al 5 -- Ti 39                  0.22        2.85968
              Al 3 -- Ti 41                  0.21        2.85973
             Ti 12 -- Ti 29                  0.12        2.85993
             Ti 6  -- Ti 17                  0.19        2.86027
             Ti 13 -- Ti 19                  0.26        2.86035
             Ti 11 -- Ti 29                  0.23        2.86057
             Ti 12 -- Ti 38                  0.24        2.86062
             Ti 18 -- Ti 19                  0.17        2.86119
              Al 6 -- Ti 44                  0.25        2.86121
             Ti 9  -- Ti 10                  0.19        2.86131
             Ti 1  -- Ti 41                  0.21        2.86146
              Al 4 -- Ti 5                   0.26        2.86175
             Ti 22 -- Ti 34                  0.13        2.86235
             Ti 11 -- Ti 16                  0.13        2.86270
             Ti 1  -- Ti 23                  0.22        2.86360
             Ti 17 -- Ti 24                  0.14        2.86367
             Ti 28 -- Ti 37                  0.15        2.86671
             Ti 2  -- Ti 42                  0.22        2.86690
              Al 2 -- Ti 32                  0.22        2.86695
             Ti 23 -- Ti 28                  0.16        2.86862
             Ti 6  -- Ti 11                  0.15        2.86897
             Ti 14 -- Ti 44                  0.23        2.86939
             Ti 14 -- Ti 20                  0.27        2.86940
              Al 3 -- Ti 30                  0.27        2.87000
             Ti 17 -- Ti 28                  0.16        2.87031
             Ti 2  -- Ti 3                   0.15        2.87040
             Ti 29 -- Ti 30                  0.14        2.87061
             Ti 29 -- Ti 33                  0.12        2.87082
             Ti 11 -- Ti 12                  0.13        2.87188
              Al 5 -- Ti 10                  0.25        2.87213
             Ti 7  -- Ti 23                  0.13        2.87293
             Ti 3  -- Ti 19                  0.24        2.87354
             Ti 33 -- Ti 41                  0.14        2.87458
             Ti 17 -- Ti 34                  0.26        2.87478
             Ti 13 -- Ti 31                  0.25        2.87538
             Ti 21 -- Ti 28                  0.18        2.87603
             Ti 24 -- Ti 25                  0.13        2.87637
             Ti 16 -- Ti 22                  0.17        2.87729
             Ti 2  -- Ti 17                  0.15        2.87732
             Ti 3  -- Ti 43                  0.25        2.87783
              Al 5 -- Ti 26                  0.26        2.87788
             Ti 20 -- Ti 35                  0.17        2.87796
             Ti 6  -- Ti 28                  0.23        2.87799
             Ti 3  -- Ti 13                  0.26        2.87803
             Ti 25 -- Ti 32                  0.15        2.87853
              Al 5 -- Ti 36                  0.27        2.87876
             Ti 8  -- Ti 31                  0.25        2.87949
             Ti 45 -- V 2                    0.20        2.87970
             Ti 6  -- V 2                    0.25        2.88000
             Ti 8  -- Ti 38                  0.15        2.88003
              Al 1 -- Ti 27                  0.22        2.88009
             Ti 42 -- Ti 43                  0.16        2.88066
             Ti 19 -- Ti 26                  0.16        2.88123
              Al 4 -- Ti 36                  0.25        2.88144
              Al 4 -- Al 6                   0.23        2.88171
              Al 5 -- Ti 8                   0.19        2.88242
              Al 2 -- Ti 27                  0.26        2.88245
             Ti 25 -- Ti 30                  0.13        2.88254
             Ti 27 -- Ti 32                  0.16        2.88281
             Ti 4  -- Ti 13                  0.14        2.88289
             Ti 2  -- Ti 11                  0.16        2.88320
              Al 2 -- Ti 15                  0.24        2.88323
              Al 1 -- Ti 6                   0.24        2.88329
              Al 3 -- Ti 1                   0.20        2.88345
             Ti 21 -- Ti 22                  0.20        2.88397
             Ti 32 -- Ti 43                  0.16        2.88405
              Al 2 -- Ti 10                  0.27        2.88405
             Ti 10 -- Ti 40                  0.17        2.88405
             Ti 9  -- Ti 32                  0.26        2.88433
             Ti 18 -- Ti 34                  0.17        2.88442
             Ti 14 -- Ti 32                  0.22        2.88511
             Ti 12 -- V 1                    0.17        2.88516
              Al 3 -- Ti 43                  0.21        2.88540
             Ti 5  -- Ti 10                  0.21        2.88557
             Ti 18 -- Ti 29                  0.14        2.88590
              Al 2 -- Ti 20                  0.23        2.88627
             Ti 36 -- Ti 43                  0.15        2.88669
             Ti 8  -- Ti 39                  0.25        2.88684
             Ti 8  -- Ti 35                  0.25        2.88708
             Ti 11 -- Ti 41                  0.28        2.88733
             Ti 8  -- Ti 12                  0.14        2.88777
             Ti 17 -- Ti 18                  0.14        2.88806
             Ti 9  -- Ti 26                  0.29        2.88824
              Al 3 -- Ti 18                  0.27        2.88833
              Al 4 -- Al 5                   0.21        2.88917
             Ti 34 -- Ti 40                  0.13        2.88919
             Ti 13 -- Ti 42                  0.13        2.88926
              Al 3 -- Ti 42                  0.25        2.88927
              Al 6 -- Ti 40                  0.24        2.88949
             Ti 33 -- Ti 45                  0.16        2.89000
             Ti 6  -- Ti 15                  0.15        2.89048
             Ti 39 -- Ti 44                  0.14        2.89061
              Al 3 -- Ti 2                   0.27        2.89117
              Al 6 -- Ti 28                  0.21        2.89137
             Ti 5  -- Ti 45                  0.21        2.89263
             Ti 41 -- Ti 46                  0.17        2.89297
             Ti 41 -- Ti 42                  0.15        2.89453
              Al 4 -- Ti 20                  0.25        2.89478
             Ti 11 -- Ti 46                  0.14        2.89511
             Ti 8  -- Ti 9                   0.12        2.89586
             Ti 19 -- Ti 24                  0.13        2.89620
             Ti 8  -- Ti 13                  0.28        2.89630
             Ti 35 -- Ti 39                  0.22        2.89682
             Ti 12 -- Ti 13                  0.13        2.89725
             Ti 26 -- Ti 27                  0.18        2.89734
             Ti 30 -- Ti 42                  0.27        2.89755
             Ti 25 -- Ti 26                  0.12        2.89784
             Ti 4  -- Ti 21                  0.14        2.89791
              Al 1 -- V 2                    0.25        2.89803
             Ti 23 -- Ti 24                  0.16        2.89856
             Ti 10 -- Ti 27                  0.18        2.89928
             Ti 3  -- Ti 9                   0.14        2.90010
              Al 6 -- Ti 21                  0.29        2.90029
             Ti 37 -- Ti 40                  0.14        2.90030
             Ti 4  -- Ti 14                  0.21        2.90110
             Ti 35 -- Ti 43                  0.24        2.90116
             Ti 34 -- Ti 38                  0.14        2.90130
             Ti 4  -- Ti 19                  0.14        2.90184
             Ti 15 -- Ti 44                  0.15        2.90281
             Ti 26 -- Ti 32                  0.28        2.90316
             Ti 18 -- Ti 31                  0.15        2.90367
             Ti 39 -- Ti 42                  0.13        2.90368
              Al 3 -- Ti 38                  0.26        2.90390
             Ti 35 -- Ti 38                  0.15        2.90394
             Ti 13 -- Ti 14                  0.17        2.90405
             Ti 29 -- Ti 34                  0.23        2.90436
             Ti 3  -- Ti 7                   0.15        2.90444
             Ti 9  -- Ti 27                  0.16        2.90479
             Ti 11 -- Ti 42                  0.12        2.90507
              Al 3 -- Ti 7                   0.26        2.90572
             Ti 27 -- Ti 33                  0.16        2.90579
             Ti 3  -- Ti 35                  0.23        2.90620
             Ti 9  -- Ti 25                  0.13        2.90631
             Ti 3  -- Ti 4                   0.14        2.90636
             Ti 4  -- Ti 26                  0.25        2.90638
             Ti 30 -- Ti 43                  0.14        2.90693
             Ti 44 -- Ti 45                  0.20        2.90751
             Ti 8  -- Ti 14                  0.14        2.90806
             Ti 5  -- Ti 36                  0.13        2.90894
             Ti 25 -- Ti 31                  0.25        2.90918
              Al 5 -- Ti 20                  0.27        2.90943
             Ti 30 -- Ti 41                  0.16        2.90944
             Ti 33 -- Ti 46                  0.29        2.90965
             Ti 4  -- Ti 44                  0.25        2.90984
             Ti 18 -- Ti 35                  0.16        2.91016
              Al 1 -- Ti 28                  0.23        2.91022
             Ti 20 -- Ti 32                  0.27        2.91041
              Al 2 -- Ti 21                  0.24        2.91079
              Al 6 -- Ti 26                  0.21        2.91190
             Ti 2  -- Ti 19                  0.14        2.91216
              Al 6 -- Ti 27                  0.27        2.91220
             Ti 10 -- Ti 15                  0.26        2.91221
             Ti 19 -- Ti 25                  0.25        2.91230
             Ti 2  -- Ti 13                  0.13        2.91303
             Ti 24 -- Ti 37                  0.15        2.91310
             Ti 7  -- Ti 25                  0.15        2.91333
             Ti 38 -- Ti 39                  0.13        2.91361
              Al 4 -- Ti 21                  0.27        2.91388
             Ti 13 -- Ti 44                  0.13        2.91460
              Al 3 -- Ti 35                  0.19        2.91484
             Ti 10 -- Ti 16                  0.15        2.91525
             Ti 25 -- Ti 39                  0.24        2.91550
             Ti 37 -- V 1                    0.29        2.91581
              Al 1 -- Ti 33                  0.25        2.91658
             Ti 27 -- Ti 45                  0.18        2.91745
              Al 4 -- Ti 10                  0.28        2.91792
             Ti 4  -- Ti 5                   0.13        2.91887
             Ti 7  -- Ti 8                   0.14        2.91893
             Ti 22 -- Ti 40                  0.22        2.91959
             Ti 12 -- Ti 42                  0.24        2.91986
             Ti 17 -- Ti 22                  0.15        2.92031
             Ti 19 -- Ti 31                  0.25        2.92046
             Ti 32 -- Ti 45                  0.15        2.92083
             Ti 4  -- Ti 15                  0.12        2.92116
             Ti 12 -- Ti 30                  0.24        2.92277
             Ti 28 -- Ti 46                  0.27        2.92317
             Ti 23 -- Ti 30                  0.14        2.92366
             Ti 24 -- Ti 42                  0.29        2.92389
             Ti 33 -- V 2                    0.32        2.92498
             Ti 23 -- Ti 29                  0.24        2.92564
             Ti 26 -- Ti 44                  0.27        2.92584
             Ti 20 -- Ti 26                  0.24        2.92663
             Ti 17 -- Ti 37                  0.28        2.92759
             Ti 12 -- Ti 31                  0.13        2.92774
             Ti 37 -- Ti 38                  0.13        2.92783
             Ti 46 -- V 2                    0.24        2.92801
             Ti 6  -- Ti 21                  0.15        2.92814
              Al 6 -- Ti 10                  0.27        2.92846
             Ti 12 -- Ti 18                  0.20        2.92887
             Ti 1  -- Ti 2                   0.17        2.92919
             Ti 25 -- Ti 43                  0.25        2.92974
             Ti 2  -- Ti 12                  0.22        2.93106
             Ti 31 -- Ti 43                  0.26        2.93146
             Ti 5  -- Ti 27                  0.22        2.93195
             Ti 5  -- Ti 9                   0.10        2.93245
             Ti 3  -- Ti 25                  0.24        2.93290
             Ti 13 -- Ti 43                  0.27        2.93311
             Ti 28 -- Ti 33                  0.26        2.93355
             Ti 24 -- Ti 39                  0.12        2.93432
             Ti 18 -- Ti 24                  0.25        2.93441
             Ti 38 -- V 1                    0.15        2.93478
             Ti 20 -- Ti 36                  0.25        2.93515
             Ti 13 -- Ti 39                  0.28        2.93553
             Ti 36 -- Ti 45                  0.21        2.93637
              Al 2 -- Al 4                   0.19        2.93769
             Ti 30 -- Ti 31                  0.11        2.93780
             Ti 8  -- Ti 25                  0.25        2.93825
             Ti 21 -- Ti 26                  0.14        2.93915
             Ti 6  -- Ti 46                  0.23        2.94084
             Ti 39 -- Ti 43                  0.25        2.94104
             Ti 34 -- Ti 37                  0.26        2.94156
             Ti 16 -- Ti 40                  0.18        2.94249
             Ti 24 -- Ti 38                  0.25        2.94314
             Ti 19 -- Ti 39                  0.27        2.94381
             Ti 21 -- Ti 27                  0.26        2.94552
             Ti 5  -- Ti 15                  0.23        2.94606
             Ti 38 -- Ti 42                  0.29        2.94633
             Ti 24 -- Ti 30                  0.29        2.94658
             Ti 37 -- Ti 42                  0.11        2.94684
             Ti 37 -- Ti 41                  0.23        2.94742
             Ti 19 -- Ti 20                  0.14        2.94752
             Ti 18 -- Ti 38                  0.23        2.94966
             Ti 2  -- Ti 24                  0.27        2.94970
             Ti 4  -- Ti 20                  0.21        2.95106
             Ti 43 -- Ti 44                  0.14        2.95196
             Ti 17 -- Ti 23                  0.26        2.95880
              Al 5 -- Ti 14                  0.25        2.96093
             Ti 2  -- Ti 18                  0.26        2.96121
             Ti 2  -- Ti 7                   0.25        2.96171
             Ti 19 -- Ti 35                  0.28        2.96181
             Ti 7  -- Ti 30                  0.30        2.96430
             Ti 5  -- Ti 21                  0.26        2.96467
             Ti 3  -- Ti 8                   0.27        2.96621
             Ti 31 -- Ti 35                  0.24        2.97254
              Al 5 -- Ti 9                   0.25        2.97387
             Ti 11 -- Ti 17                  0.27        2.97419
             Ti 7  -- Ti 24                  0.23        2.98244
              Al 6 -- Ti 15                  0.24        2.98348
             Ti 32 -- Ti 44                  0.30        2.98757
             Ti 34 -- V 1                    0.27        2.98840
             Ti 23 -- Ti 37                  0.25        2.98928
             Ti 29 -- Ti 41                  0.23        2.99511
             Ti 9  -- Ti 14                  0.24        2.99762
             Ti 22 -- Ti 28                  0.25        2.99980
======================================================================

 
 A BibTeX formatted list of references used in this run has been written to 
 sqs_hcp_sc3x3x3_Ti46Al6V2_frame0_03.bib
 
Initialisation time =     19.26 s
Calculation time    =   2161.71 s
Finalisation time   =      0.35 s
Total time          =   2181.31 s
Peak Memory Use     = 1910560 kB
 
Overall parallel efficiency rating: Mediocre (55%)
 
Data was distributed by:-
G-vector (24-way); efficiency rating: Mediocre (55%)
k-point (14-way); efficiency rating: Excellent (98%)
