 +-------------------------------------------------+
 |                                                 |
 |      CCC   AA    SSS  TTTTT  EEEEE  PPPP        |
 |     C     A  A  S       T    E      P   P       |
 |     C     AAAA   SS     T    EEE    PPPP        |
 |     C     A  A     S    T    E      P           |
 |      CCC  A  A  SSS     T    EEEEE  P           |
 |                                                 |
 +-------------------------------------------------+
 |                                                 |
 | Welcome to Academic Release CASTEP version 24.1 |
 | Ab Initio Total Energy Program                  |
 |                                                 |
 | Authors:                                        |
 | M. Segall, M. Probert, C. Pickard, P. Hasnip,   |
 | S. Clark, K. Refson, J. R. Yates,               |
 | A. Bartok-Partay, M. Payne                      |
 |                                                 |
 | Contributors:                                   |
 | P. Lindan, P. Haynes, J. White, V. Milman,      |
 | N. Govind, M. Gibson, P. Tulip, V. Cocula,      |
 | B. Montanari, D. Quigley, M. Glover,            |
 | L. Bernasconi, A. Perlov, M. Plummer,           |
 | E. McNellis, J. Meyer, J. Gale, D. Jochym       |
 | J. Aarons, B. Walker, R. Gillen, D. Jones       |
 | T. Green, I. J. Bush, C. J. Armstrong,          |
 | E. J. Higgins, E. L. Brown, M. S. McFly,        |
 | J. Wilkins, B-C. Shih, P. J. P. Byrne,          |
 | R. J. Maurer, J. C. Womack, J. Dziedzic,        |
 | L. LeBlanc, T. K. Stenczel, J. Kermode,         |
 | S. Sturniolo, B. Shi, B. Durham, M. Evans,      |
 | M. J. Smith, A. Tamerus, Z. Hawkhead,           |
 | V. Ravindran, T. Hollins, S. A. Joyce,          |
 | R. T. Strong, A. M. Reilly                      |
 |                                                 |
 | Copyright (c) 2000 - 2023                       |
 |                                                 |
 |     Distributed under license from Cambridge    |
 |     Enterprise for academic use only.           |
 |                                                 |
 | Please cite                                     |
 |                                                 |
 |     "First principles methods using CASTEP"     |
 |                                                 |
 |         Zeitschrift fuer Kristallographie       |
 |           220(5-6) pp. 567-570 (2005)           |
 |                                                 |
 | S. J. Clark, M. D. Segall, C. J. Pickard,       |
 | P. J. Hasnip, M. J. Probert, K. Refson,         |
 | M. C. Payne                                     |
 |                                                 |
 |       in all publications arising from          |
 |              your use of CASTEP                 |
 |                                                 |
 +-------------------------------------------------+
 |                                                 |
 |              http://www.castep.org              |
 |                                                 |
 +-------------------------------------------------+



 Compiled for linux_x86_64_gfortran10 on Tue, 02 May 2023 15:31:46 +0100
 from code version db08e394c+  default  Mon May 1 16:40:39 2023 +0100
 Compiler: GNU Fortran 10.2.0; Optimisation: fast
 Comms   : Open MPI v4.0.5
 MATHLIBS: openblas (LAPACK version 3.9.0)
 FFT Lib : fftw3 version fftw-3.3.8-sse2-avx-avx2-avx2_128
 Fundamental constants values: CODATA 2018

 Run started: Wed, 07 Feb 2024 17:26:50 +0000
 Info: number of up-spin electrons is not equal to the
       number of down-spins but spin_polarized=false
     - consider setting spin_polarized=true.

 Atomic calculation performed for Al: 1s2 2s2 2p6 3s2 3p1

 Converged in 54 iterations to an ae energy of -6603.783 eV

   ============================================================                
   | Pseudopotential Report - Date of generation  7-02-2024   |                
   ------------------------------------------------------------                
   | Element: Al Ionic charge:  3.00 Level of theory: PBE     |                
   | Atomic Solver: Koelling-Harmon                           |                
   |                                                          |                
   |               Reference Electronic Structure             |                
   |         Orbital         Occupation         Energy        |                
   |            3s              2.000           -0.285        |                
   |            3p              1.000           -0.100        |                
   |                                                          |                
   |                 Pseudopotential Definition               |                
   |        Beta     l      e      Rc     scheme   norm       |                
   |          1      0   -0.285   2.192     qc      0         |                
   |          2      0    0.250   2.192     qc      0         |                
   |          3      1   -0.100   2.192     qc      0         |                
   |          4      1    0.250   2.192     qc      0         |                
   |          5      2    0.000   2.000     qc      0         |                
   |          6      2    0.250   2.000     qc      0         |                
   |         loc     3    0.000   2.192     pn      0         |                
   |                                                          |                
   | Augmentation charge Rinner = 1.398                       |                
   | Partial core correction Rc = 1.398                       |                
   ------------------------------------------------------------                
   | "3|2.2|2.2|1.4|4|5|5|30:31:32U2U2"                       |                
   ------------------------------------------------------------                
   |      Author: Chris J. Pickard, Cambridge University      |                
   ============================================================                

 Atomic calculation performed for Ti: 1s2 2s2 2p6 3s2 3p6 3d2 4s2

 Converged in 79 iterations to an ae energy of -23226.658 eV

   ============================================================                
   | Pseudopotential Report - Date of generation  7-02-2024   |                
   ------------------------------------------------------------                
   | Element: Ti Ionic charge: 12.00 Level of theory: PBE     |                
   | Atomic Solver: Koelling-Harmon                           |                
   |                                                          |                
   |               Reference Electronic Structure             |                
   |         Orbital         Occupation         Energy        |                
   |            3s              2.000           -2.302        |                
   |            3p              6.000           -1.428        |                
   |            4s              2.000           -0.164        |                
   |            3d              2.000           -0.157        |                
   |                                                          |                
   |                 Pseudopotential Definition               |                
   |        Beta     l      e      Rc     scheme   norm       |                
   |          1      0   -2.302   1.793     qc      0         |                
   |          2      0   -0.164   1.793     qc      0         |                
   |          3      0    0.250   1.793     qc      0         |                
   |          4      1   -1.428   1.793     qc      0         |                
   |          5      1    0.250   1.793     qc      0         |                
   |          6      2   -0.157   1.793     qc      0         |                
   |          7      2    0.250   1.793     qc      0         |                
   |         loc     3    0.000   1.793     pn      0         |                
   |                                                          |                
   | Augmentation charge Rinner = 1.263                       |                
   | Partial core correction Rc = 1.263                       |                
   ------------------------------------------------------------                
   | "3|1.8|9|10|11|30U:40:31:32(qc=5.5)"                     |                
   ------------------------------------------------------------                
   |      Author: Chris J. Pickard, Cambridge University      |                
   ============================================================                

 Atomic calculation performed for V: 1s2 2s2 2p6 3s2 3p6 3d3 4s2

 Converged in 81 iterations to an ae energy of -25823.733 eV

   ============================================================                
   | Pseudopotential Report - Date of generation  7-02-2024   |                
   ------------------------------------------------------------                
   | Element: V Ionic charge: 13.00 Level of theory: PBE      |                
   | Atomic Solver: Koelling-Harmon                           |                
   |                                                          |                
   |               Reference Electronic Structure             |                
   |         Orbital         Occupation         Energy        |                
   |            3s              2.000           -2.581        |                
   |            3p              6.000           -1.618        |                
   |            3d              3.000           -0.190        |                
   |            4s              2.000           -0.173        |                
   |                                                          |                
   |                 Pseudopotential Definition               |                
   |        Beta     l      e      Rc     scheme   norm       |                
   |          1      0   -2.581   1.803     qc      0         |                
   |          2      0   -0.173   1.803     qc      0         |                
   |          3      0    0.250   1.803     qc      0         |                
   |          4      1   -1.618   1.803     qc      0         |                
   |          5      1    0.250   1.803     qc      0         |                
   |          6      2   -0.190   1.803     qc      0         |                
   |          7      2    0.250   1.803     qc      0         |                
   |         loc     3    0.000   1.803     pn      0         |                
   |                                                          |                
   | Augmentation charge Rinner = 0.600                       |                
   | Partial core correction Rc = 0.600                       |                
   ------------------------------------------------------------                
   | "3|1.8|1.8|0.6|12|14|16|30U:40:31:32(qc=7)"              |                
   ------------------------------------------------------------                
   |      Author: Chris J. Pickard, Cambridge University      |                
   ============================================================                

 Pseudo atomic calculation performed for Al 3s2 3p1

 Converged in 15 iterations to a total energy of -107.1308 eV

 Pseudo atomic calculation performed for Ti 3s2 3p6 3d2 4s2

 Converged in 34 iterations to a total energy of -1587.0236 eV

 Pseudo atomic calculation performed for V 3s2 3p6 3d3 4s2

 Converged in 35 iterations to a total energy of -2065.7874 eV
 Calculation parallelised over 240 processes.
 Data is distributed by G-vector(16-way) and k-point(15-way)

 ************************************ Title ************************************
 

 ***************************** General Parameters ******************************
  
 output verbosity                               : normal  (1)
 write checkpoint data to                       : sqs_hex_sc3x3x3_Ti70Al8V3_frame0_05.check
 type of calculation                            : single point energy
 stress calculation                             : on
 density difference calculation                 : off
 electron localisation func (ELF) calculation   : off
 Hirshfeld analysis                             : off
 polarisation (Berry phase) analysis            : off
 molecular orbital projected DOS                : off
 deltaSCF calculation                           : off
 unlimited duration calculation
 timing information                             : on
 memory usage estimate                          : on
 write extra output files                       : on
 write final potential to formatted file        : off
 write final density to formatted file          : off
 write BibTeX reference list                    : on
 write OTFG pseudopotential files               : on
 write electrostatic potential file             : on
 write bands file                               : on
 checkpoint writing                             : off
  
 output         length unit                     : A
 output           mass unit                     : amu
 output           time unit                     : ps
 output         charge unit                     : e
 output           spin unit                     : hbar/2
 output         energy unit                     : eV
 output          force unit                     : eV/A
 output       velocity unit                     : A/ps
 output       pressure unit                     : GPa
 output     inv_length unit                     : 1/A
 output      frequency unit                     : cm-1
 output force constant unit                     : eV/A**2
 output         volume unit                     : A**3
 output   IR intensity unit                     : (D/A)**2/amu
 output         dipole unit                     : D
 output         efield unit                     : eV/A/e
 output        entropy unit                     : J/mol/K
 output    efield chi2 unit                     : pm/V
  
 wavefunctions paging                           : none
 random number generator seed                   :  172650143
 data distribution                              : k-point only
 optimization strategy                          : maximize speed(+++)

 *********************** Exchange-Correlation Parameters ***********************
  
 using functional                               : Perdew Burke Ernzerhof
 relativistic treatment                         : Koelling-Harmon
 DFT+D: Semi-empirical dispersion correction    : off

 ************************* Pseudopotential Parameters **************************
  
 pseudopotential representation                 : reciprocal space
 <beta|phi> representation                      : reciprocal space
 spin-orbit coupling                            : off

 **************************** Basis Set Parameters *****************************
  
 plane wave basis set cut-off                   :   800.0000   eV
 size of standard grid                          :     2.0000
 size of   fine   gmax                          :    28.9810   1/A
 largest prime factor in FFT                    :          5
 finite basis set correction                    : automatic
 number of sample energies                      :          3
           sample  spacing                      :     5.0000   eV

 **************************** Electronic Parameters ****************************
  
 number of  electrons                           :  903.0    
 net charge of system                           :  0.000    
 treating system as non-spin-polarized
 number of bands                                :        487

 ********************* Electronic Minimization Parameters **********************
  
 Method: Treating system as metallic with density mixing treatment of electrons,
         and number of  SD  steps               :          1
         and number of  CG  steps               :          4
  
 total energy / atom convergence tol.           : 0.1000E-05   eV
 eigen-energy convergence tolerance             : 0.1663E-06   eV
 max force / atom convergence tol.              : ignored
 convergence tolerance window                   :          3   cycles
 max. number of SCF cycles                      :         30
 number of fixed-spin iterations                :         10
 smearing scheme                                : Gaussian
 smearing width                                 : 0.5000E-01   eV
 Fermi energy convergence tolerance             : 0.2721E-13   eV
 periodic dipole correction                     : NONE

 ************************** Density Mixing Parameters **************************
  
 density-mixing scheme                          : Pulay
 max. length of mixing history                  :         20
 charge density mixing amplitude                : 0.8000    
 cut-off energy for mixing                      :  800.0       eV
 charge density mixing g-vector                 :  1.500       1/A

 *********************** Population Analysis Parameters ************************
  
 Population analysis with cutoff                :  3.000       A
 Population analysis output                     : summary and pdos components

 ******************************* Developer Code ********************************
  
 PARALLEL: kpoint=15 : ENDPARALLEL
 no_improve_wvfn

 *******************************************************************************
  

                           -------------------------------
                                      Unit Cell
                           -------------------------------
        Real Lattice(A)                      Reciprocal Lattice(1/A)
     6.6984750   -11.8388770     0.1184480        0.469001164  -0.265388923  -0.002651664
     6.6984750    11.8388760    -0.1184080        0.469001188   0.265388950   0.002654324
    -0.0000240    -0.0846180     8.4646560       -0.000002216   0.007426050   0.742359014

                       Lattice parameters(A)       Cell Angles
                    a =     13.603037          alpha =   90.997297
                    b =     13.603035          beta  =   89.002695
                    c =      8.465079          gamma =  120.999811

                       Current cell volume =          1342.401128       A**3
                                   density =             2.770682   AMU/A**3
                                           =             4.600826     g/cm^3

                           -------------------------------
                                     Cell Contents
                           -------------------------------
                         Total number of ions in cell =   81
                      Total number of species in cell =    3
                        Max number of any one species =   70

            xxxxxxxxxxxxxxxxxxxxxxxxxxxxxxxxxxxxxxxxxxxxxxxxxxxxxxxxxxxx
            x  Element    Atom        Fractional coordinates of atoms  x
            x            Number           u          v          w      x
            x----------------------------------------------------------x
            x  Al           1        -0.000247  -0.001326   0.330733   x 
            x  Al           2         0.561171   0.117172   0.794242   x 
            x  Al           3         0.552346   0.444073   0.652557   x 
            x  Al           4         0.560953   0.442024   0.973541   x 
            x  Al           5         0.336101   0.664673  -0.004848   x 
            x  Al           6         0.557634   0.777502   0.155799   x 
            x  Al           7         0.450688   0.900541   0.839547   x 
            x  Al           8         0.779252   0.889231   0.832163   x 
            x  Ti           1        -0.001779  -0.002587  -0.003597   x 
            x  Ti           2         0.108549   0.219909   0.163498   x 
            x  Ti           3         0.222498   0.110493   0.162162   x 
            x  Ti           4         0.106828   0.220019   0.497345   x 
            x  Ti           5         0.221687   0.110436   0.495743   x 
            x  Ti           6        -0.001662  -0.002396   0.665211   x 
            x  Ti           7         0.108640   0.218419   0.830768   x 
            x  Ti           8         0.224869   0.111682   0.829381   x 
            x  Ti           9         0.003632   0.336991  -0.002433   x 
            x  Ti          10         0.115427   0.556488   0.162964   x 
            x  Ti          11         0.225239   0.444777   0.164822   x 
            x  Ti          12         0.002551   0.334690   0.332524   x 
            x  Ti          13         0.112660   0.557161   0.495839   x 
            x  Ti          14         0.223460   0.446833   0.499970   x 
            x  Ti          15        -0.000455   0.335350   0.666586   x 
            x  Ti          16         0.109243   0.556232   0.829239   x 
            x  Ti          17         0.221769   0.444388   0.831850   x 
            x  Ti          18         0.000365   0.665542  -0.004249   x 
            x  Ti          19         0.112536   0.889715   0.162442   x 
            x  Ti          20         0.217888   0.775277   0.164047   x 
            x  Ti          21        -0.005464   0.664090   0.328735   x 
            x  Ti          22         0.113142   0.888943   0.494455   x 
            x  Ti          23         0.221125   0.776339   0.492681   x 
            x  Ti          24        -0.004545   0.664505   0.663284   x 
            x  Ti          25         0.109696   0.888687   0.827867   x 
            x  Ti          26         0.224622   0.779543   0.828082   x 
            x  Ti          27         0.333992   0.000309  -0.006320   x 
            x  Ti          28         0.451283   0.234852   0.159903   x 
            x  Ti          29         0.556528   0.110575   0.142310   x 
            x  Ti          30         0.336418   0.005066   0.326601   x 
            x  Ti          31         0.452068   0.236456   0.487518   x 
            x  Ti          32         0.334858   0.002202   0.659143   x 
            x  Ti          33         0.451035   0.232520   0.825347   x 
            x  Ti          34         0.325672   0.330257  -0.001417   x 
            x  Ti          35         0.451406   0.548786   0.155394   x 
            x  Ti          36         0.558241   0.447419   0.310247   x 
            x  Ti          37         0.320581   0.326511   0.328374   x 
            x  Ti          38         0.449629   0.546337   0.489433   x 
            x  Ti          39         0.321492   0.327665   0.659526   x 
            x  Ti          40         0.449650   0.548696   0.821232   x 
            x  Ti          41         0.439522   0.885989   0.165315   x 
            x  Ti          42         0.335897   0.666633   0.329957   x 
            x  Ti          43         0.446670   0.896220   0.507807   x 
            x  Ti          44         0.552530   0.775180   0.482160   x 
            x  Ti          45         0.337370   0.669584   0.661591   x 
            x  Ti          46         0.554897   0.777830   0.828963   x 
            x  Ti          47         0.667139  -0.002828  -0.004772   x 
            x  Ti          48         0.780331   0.221598   0.168313   x 
            x  Ti          49         0.888455   0.112281   0.165778   x 
            x  Ti          50         0.662668  -0.004470   0.329432   x 
            x  Ti          51         0.770173   0.217601   0.500950   x 
            x  Ti          52         0.886936   0.114703   0.494753   x 
            x  Ti          53         0.667112  -0.005315   0.663059   x 
            x  Ti          54         0.782897   0.225112   0.839423   x 
            x  Ti          55         0.889225   0.112704   0.830038   x 
            x  Ti          56         0.769794   0.544721   0.135186   x 
            x  Ti          57         0.892755   0.443330   0.164231   x 
            x  Ti          58         0.671932   0.327119   0.321028   x 
            x  Ti          59         0.762578   0.547571   0.485135   x 
            x  Ti          60         0.888702   0.444169   0.500467   x 
            x  Ti          61         0.669707   0.333575   0.663686   x 
            x  Ti          62         0.877221   0.448702   0.837333   x 
            x  Ti          63         0.671184   0.674149  -0.005626   x 
            x  Ti          64         0.782764   0.892879   0.161762   x 
            x  Ti          65         0.888461   0.774609   0.169204   x 
            x  Ti          66         0.675867   0.682590   0.325152   x 
            x  Ti          67         0.781058   0.892616   0.504270   x 
            x  Ti          68         0.889891   0.775228   0.499151   x 
            x  Ti          69         0.670677   0.675987   0.657990   x 
            x  Ti          70         0.885427   0.769594   0.834433   x 
            x  V            1         0.552039   0.117615   0.474329   x 
            x  V            2         0.663753   0.316479  -0.004301   x 
            x  V            3         0.761099   0.553177   0.803565   x 
            xxxxxxxxxxxxxxxxxxxxxxxxxxxxxxxxxxxxxxxxxxxxxxxxxxxxxxxxxxxx


                         No user defined ionic velocities

                           -------------------------------
                                   Details of Species
                           -------------------------------

                               Mass of species in AMU
                                    Al   26.9815400
                                    Ti   47.8670000
                                    V   50.9415000

                          Electric Quadrupole Moment (Barn)
                                    Al    0.1466000 Isotope 27
                                    Ti    0.3020000 Isotope 47
                                    V   -0.0520000 Isotope 51

                          Files used for pseudopotentials:
                                    Al 3|2.2|2.2|1.4|4|5|5|30:31:32U2U2
                                    Ti 3|1.8|9|10|11|30U:40:31:32(qc=5.5)
                                    V 3|1.8|1.8|0.6|12|14|16|30U:40:31:32(qc=7)

                           -------------------------------
                              k-Points For BZ Sampling
                           -------------------------------
                       MP grid size for SCF calculation is  5  5  6
                            with an offset of   0.000  0.000  0.000
                       Number of kpoints used =            75

                           -------------------------------
                               Symmetry and Constraints
                           -------------------------------

                      Maximum deviation from symmetry =  0.00000         ANG

                      Number of symmetry operations   =           1
                      Number of ionic constraints     =           3
                      Point group of crystal =     1: C1, 1, 1
                      Space group of crystal =     1: P1, P 1

             Set iprint > 1 for details on symmetry rotations/translations

                         Centre of mass is constrained
             Set iprint > 1 for details of linear ionic constraints

                         Number of cell constraints= 0
                         Cell constraints are:  1 2 3 4 5 6

                         External pressure/stress (GPa)
                          0.00000   0.00000   0.00000
                                    0.00000   0.00000
                                              0.00000
 
+---------------- MEMORY AND SCRATCH DISK ESTIMATES PER PROCESS --------------+
|                                                     Memory          Disk    |
| Baseline code, static data and system overhead      591.0 MB         0.0 MB |
| BLAS internal memory storage                          0.0 MB         0.0 MB |
| Model and support data                              920.5 MB         0.0 MB |
| Electronic energy minimisation requirements         432.0 MB         0.0 MB |
| Force calculation requirements                       15.9 MB         0.0 MB |
| Stress calculation requirements                      17.2 MB         0.0 MB |
|                                               ----------------------------- |
| Approx. total storage required per process         1943.5 MB         0.0 MB |
|                                                                             |
| Requirements will fluctuate during execution and may exceed these estimates |
+-----------------------------------------------------------------------------+
Calculating finite basis set correction with  3 cut-off energies.
Calculating total energy with cut-off of  790.000 eV.
------------------------------------------------------------------------ <-- SCF
SCF loop      Energy           Fermi           Energy gain       Timer   <-- SCF
                               energy          per atom          (sec)   <-- SCF
------------------------------------------------------------------------ <-- SCF
Initial  -1.06838122E+005  0.00000000E+000                        34.44  <-- SCF
      1  -1.15648857E+005  1.20755376E+001   1.08774514E+002     236.13  <-- SCF
      2  -1.18524532E+005  9.42225788E+000   3.55021498E+001     402.96  <-- SCF
      3  -1.18686475E+005  9.21800641E+000   1.99930605E+000     572.33  <-- SCF
      4  -1.18709325E+005  8.40133122E+000   2.82098248E-001     777.63  <-- SCF
      5  -1.18693650E+005  8.62166031E+000  -1.93518905E-001     984.35  <-- SCF
      6  -1.18687537E+005  8.77918273E+000  -7.54660019E-002    1184.84  <-- SCF
      7  -1.18682627E+005  8.79936827E+000  -6.06290147E-002    1391.79  <-- SCF
      8  -1.18683697E+005  8.75002770E+000   1.32095100E-002    1594.93  <-- SCF
      9  -1.18682525E+005  8.74613117E+000  -1.44630391E-002    1783.43  <-- SCF
     10  -1.18682296E+005  8.72980194E+000  -2.83005722E-003    1981.27  <-- SCF
     11  -1.18682376E+005  8.72497529E+000   9.96735029E-004    2179.80  <-- SCF
     12  -1.18682294E+005  8.72249947E+000  -1.01762769E-003    2363.88  <-- SCF
     13  -1.18682280E+005  8.72314995E+000  -1.67950818E-004    2556.81  <-- SCF
     14  -1.18682281E+005  8.72350782E+000   4.03528312E-006    2745.12  <-- SCF
     15  -1.18682279E+005  8.72356170E+000  -2.28344125E-005    2905.89  <-- SCF
     16  -1.18682279E+005  8.72360113E+000   2.19991814E-006    3064.10  <-- SCF
     17  -1.18682279E+005  8.72367654E+000  -2.56511049E-006    3202.18  <-- SCF
     18  -1.18682279E+005  8.72367184E+000   5.73492549E-008    3316.47  <-- SCF
     19  -1.18682279E+005  8.72366438E+000  -8.56515838E-009    3429.69  <-- SCF
------------------------------------------------------------------------ <-- SCF
 
Final energy, E             =  -118682.1718874     eV
Final free energy (E-TS)    =  -118682.2789182     eV
(energies not corrected for finite basis set)
 
NB est. 0K energy (E-0.5TS)      =  -118682.2254028     eV
 
Calculating total energy with cut-off of  795.000 eV.
------------------------------------------------------------------------ <-- SCF
SCF loop      Energy           Fermi           Energy gain       Timer   <-- SCF
                               energy          per atom          (sec)   <-- SCF
------------------------------------------------------------------------ <-- SCF
Initial  -1.18682172E+005  0.00000000E+000                      3462.28  <-- SCF
      1  -1.18682281E+005  8.72381496E+000   1.34781868E-003    3600.18  <-- SCF
      2  -1.18682281E+005  8.72381304E+000   2.65974551E-006    3740.99  <-- SCF
      3  -1.18682304E+005  8.72191765E+000   2.85121646E-004    3919.39  <-- SCF
      4  -1.18682281E+005  8.72448105E+000  -2.87443818E-004    4091.11  <-- SCF
      5  -1.18682280E+005  8.72369309E+000  -9.84090898E-006    4251.83  <-- SCF
      6  -1.18682280E+005  8.72365212E+000   1.63369313E-006    4381.98  <-- SCF
      7  -1.18682280E+005  8.72365349E+000  -2.67306087E-007    4489.29  <-- SCF
      8  -1.18682280E+005  8.72363653E+000  -5.21557129E-008    4593.29  <-- SCF
------------------------------------------------------------------------ <-- SCF
 
Final energy, E             =  -118682.1733397     eV
Final free energy (E-TS)    =  -118682.2803661     eV
(energies not corrected for finite basis set)
 
NB est. 0K energy (E-0.5TS)      =  -118682.2268529     eV
 
Calculating total energy with cut-off of  800.000 eV.
------------------------------------------------------------------------ <-- SCF
SCF loop      Energy           Fermi           Energy gain       Timer   <-- SCF
                               energy          per atom          (sec)   <-- SCF
------------------------------------------------------------------------ <-- SCF
Initial  -1.18682173E+005  0.00000000E+000                      4623.53  <-- SCF
      1  -1.18682286E+005  8.72354636E+000   1.39240017E-003    4776.91  <-- SCF
      2  -1.18682286E+005  8.72354449E+000   2.86335539E-006    4920.91  <-- SCF
      3  -1.18682388E+005  8.72304075E+000   1.25089162E-003    5103.90  <-- SCF
      4  -1.18682281E+005  8.72471246E+000  -1.31127298E-003    5279.58  <-- SCF
      5  -1.18682282E+005  8.72364878E+000   3.16890878E-006    5442.85  <-- SCF
      6  -1.18682282E+005  8.72370518E+000   5.05583917E-006    5600.99  <-- SCF
      7  -1.18682282E+005  8.72359748E+000  -2.04841814E-006    5735.57  <-- SCF
      8  -1.18682282E+005  8.72360293E+000  -1.21415222E-006    5843.74  <-- SCF
      9  -1.18682282E+005  8.72361096E+000  -4.12843506E-008    5949.35  <-- SCF
     10  -1.18682282E+005  8.72363202E+000  -9.03605418E-008    6053.12  <-- SCF
------------------------------------------------------------------------ <-- SCF
 
Final energy, E             =  -118682.1747225     eV
Final free energy (E-TS)    =  -118682.2817414     eV
(energies not corrected for finite basis set)
 
NB est. 0K energy (E-0.5TS)      =  -118682.2282319     eV
 
 For future reference: finite basis dEtot/dlog(Ecut) =      -0.224180eV
 Total energy corrected for finite basis set = -118682.281740 eV

 ************************** Forces **************************
 *                                                          *
 *               Cartesian components (eV/A)                *
 * -------------------------------------------------------- *
 *                         x            y            z      *
 *                                                          *
 * Al              1      0.03129      0.02445      0.01993 *
 * Al              2     -0.23454      0.01421      0.02401 *
 * Al              3      0.10447     -0.04721      0.01290 *
 * Al              4      0.03909      0.04813     -0.00198 *
 * Al              5     -0.02979      0.01913     -0.04113 *
 * Al              6     -0.10581      0.16690     -0.05056 *
 * Al              7     -0.15271     -0.26343      0.18986 *
 * Al              8     -0.00135     -0.06288      0.04942 *
 * Ti              1      0.01082     -0.07698      0.05738 *
 * Ti              2     -0.16741      0.03247      0.03611 *
 * Ti              3      0.03602     -0.05548     -0.00716 *
 * Ti              4     -0.11499      0.04120     -0.03476 *
 * Ti              5     -0.03713      0.01976     -0.05912 *
 * Ti              6      0.06866     -0.05084     -0.08916 *
 * Ti              7     -0.01802      0.09261      0.01413 *
 * Ti              8      0.05911     -0.06322      0.00907 *
 * Ti              9      0.00145     -0.04366     -0.03085 *
 * Ti             10      0.02870     -0.00162      0.00978 *
 * Ti             11      0.10356     -0.04350     -0.04044 *
 * Ti             12     -0.05069      0.03580     -0.00003 *
 * Ti             13     -0.00895      0.03067      0.02025 *
 * Ti             14      0.06504     -0.00613     -0.05496 *
 * Ti             15      0.00002     -0.01160      0.01978 *
 * Ti             16      0.09638     -0.02036      0.02161 *
 * Ti             17      0.06452      0.08086     -0.06379 *
 * Ti             18     -0.09569      0.02109     -0.11870 *
 * Ti             19     -0.08726      0.02293      0.04838 *
 * Ti             20      0.14087     -0.00291      0.00855 *
 * Ti             21      0.03146     -0.01241     -0.02332 *
 * Ti             22     -0.03414      0.04604     -0.01095 *
 * Ti             23      0.04369      0.04742     -0.02569 *
 * Ti             24     -0.00150     -0.00685      0.08421 *
 * Ti             25      0.01901     -0.11265     -0.01837 *
 * Ti             26     -0.13188     -0.01093     -0.01448 *
 * Ti             27     -0.01395      0.07445      0.03093 *
 * Ti             28      0.05660     -0.04836     -0.01807 *
 * Ti             29      0.01907      0.02099      0.03999 *
 * Ti             30     -0.01369      0.06611     -0.07777 *
 * Ti             31     -0.12260     -0.05363     -0.14992 *
 * Ti             32      0.07961     -0.07595      0.05438 *
 * Ti             33     -0.10387     -0.19895     -0.10188 *
 * Ti             34     -0.02190      0.04258     -0.13013 *
 * Ti             35     -0.00114      0.06062      0.23003 *
 * Ti             36     -0.10397      0.04469      0.20264 *
 * Ti             37      0.08476     -0.02165     -0.09317 *
 * Ti             38      0.08502      0.04779      0.09844 *
 * Ti             39      0.00454     -0.02984      0.07220 *
 * Ti             40     -0.04965      0.06933      0.10508 *
 * Ti             41      0.04881     -0.05916     -0.01591 *
 * Ti             42      0.02273      0.03787     -0.15634 *
 * Ti             43     -0.00431     -0.05511      0.09296 *
 * Ti             44      0.09240      0.01464     -0.08686 *
 * Ti             45      0.05918      0.07066      0.09396 *
 * Ti             46     -0.05871      0.01335     -0.01741 *
 * Ti             47     -0.01311      0.08728      0.06809 *
 * Ti             48      0.04924     -0.07466     -0.04451 *
 * Ti             49     -0.02638     -0.02436     -0.01808 *
 * Ti             50      0.05510      0.05960     -0.05829 *
 * Ti             51      0.00980     -0.18974     -0.01641 *
 * Ti             52     -0.03789     -0.05051     -0.04477 *
 * Ti             53     -0.05560     -0.08950      0.07525 *
 * Ti             54      0.04356     -0.12249      0.12178 *
 * Ti             55      0.09112      0.17801     -0.00453 *
 * Ti             56      0.06669     -0.02637      0.23510 *
 * Ti             57     -0.07465      0.01828     -0.11967 *
 * Ti             58      0.05492      0.20649      0.11225 *
 * Ti             59      0.12587     -0.12061     -0.13354 *
 * Ti             60     -0.04277      0.01112     -0.06678 *
 * Ti             61     -0.16067      0.10978      0.01851 *
 * Ti             62     -0.06770      0.02734      0.04057 *
 * Ti             63     -0.05381      0.03854     -0.08736 *
 * Ti             64      0.04934     -0.03045      0.03591 *
 * Ti             65      0.02481      0.02338     -0.06116 *
 * Ti             66     -0.17890      0.02887     -0.10467 *
 * Ti             67      0.05981      0.00645     -0.01384 *
 * Ti             68     -0.01127     -0.01839     -0.15301 *
 * Ti             69     -0.01451     -0.00280      0.00783 *
 * Ti             70      0.02371     -0.02513     -0.09029 *
 * V               1     -0.08877      0.11520      0.00231 *
 * V               2      0.15852      0.21940      0.07281 *
 * V               3      0.28229     -0.22617      0.11348 *
 *                                                          *
 ************************************************************

 ***************** Stress Tensor *****************
 *                                               *
 *          Cartesian components (GPa)           *
 * --------------------------------------------- *
 *             x             y             z     *
 *                                               *
 *  x     -4.134722      0.063526     -0.235803  *
 *  y      0.063526     -1.797041     -0.770728  *
 *  z     -0.235803     -0.770728     -1.214979  *
 *                                               *
 *  Pressure:    2.3822                          *
 *                                               *
 *************************************************

 Pseudo atomic calculation performed for Al 3s2 3p1

 Converged in 15 iterations to a total energy of -107.1308 eV

 Pseudo atomic calculation performed for Ti 3s2 3p6 3d2 4s2

 Converged in 34 iterations to a total energy of -1587.0236 eV

 Pseudo atomic calculation performed for V 3s2 3p6 3d3 4s2

 Converged in 35 iterations to a total energy of -2065.7874 eV
Charge spilling parameter for spin component 1 = 0.08%

            Orbital Populations       
     Ion    Atom   Orbital             Charge
  -------------------------------------------
     Al     1      S                    0.905
     Al     1      Px                   0.685
     Al     1      Py                   0.666
     Al     1      Pz                   0.675
     Al     2      S                    0.949
     Al     2      Px                   0.704
     Al     2      Py                   0.726
     Al     2      Pz                   0.675
     Al     3      S                    0.953
     Al     3      Px                   0.746
     Al     3      Py                   0.749
     Al     3      Pz                   0.635
     Al     4      S                    0.955
     Al     4      Px                   0.745
     Al     4      Py                   0.723
     Al     4      Pz                   0.640
     Al     5      S                    0.928
     Al     5      Px                   0.641
     Al     5      Py                   0.661
     Al     5      Pz                   0.694
     Al     6      S                    0.961
     Al     6      Px                   0.701
     Al     6      Py                   0.720
     Al     6      Pz                   0.675
     Al     7      S                    0.964
     Al     7      Px                   0.677
     Al     7      Py                   0.720
     Al     7      Pz                   0.694
     Al     8      S                    0.942
     Al     8      Px                   0.730
     Al     8      Py                   0.712
     Al     8      Pz                   0.668
     Ti     1      S                    2.001
     Ti     1      Px                   2.004
     Ti     1      Py                   2.004
     Ti     1      Pz                   2.005
     Ti     1      S                    0.304
     Ti     1      Dzz                  0.485
     Ti     1      Dzy                  0.614
     Ti     1      Dzx                  0.639
     Ti     1      Dxx-yy               0.457
     Ti     1      Dxy                  0.449
     Ti     1      Px                   0.335
     Ti     1      Py                   0.353
     Ti     1      Pz                   0.305
     Ti     2      S                    2.006
     Ti     2      Px                   2.009
     Ti     2      Py                   2.008
     Ti     2      Pz                   2.007
     Ti     2      S                    0.256
     Ti     2      Dzz                  0.592
     Ti     2      Dzy                  0.508
     Ti     2      Dzx                  0.512
     Ti     2      Dxx-yy               0.605
     Ti     2      Dxy                  0.600
     Ti     2      Px                   0.286
     Ti     2      Py                   0.302
     Ti     2      Pz                   0.336
     Ti     3      S                    2.005
     Ti     3      Px                   2.008
     Ti     3      Py                   2.008
     Ti     3      Pz                   2.007
     Ti     3      S                    0.263
     Ti     3      Dzz                  0.598
     Ti     3      Dzy                  0.497
     Ti     3      Dzx                  0.501
     Ti     3      Dxx-yy               0.608
     Ti     3      Dxy                  0.604
     Ti     3      Px                   0.295
     Ti     3      Py                   0.315
     Ti     3      Pz                   0.328
     Ti     4      S                    2.006
     Ti     4      Px                   2.009
     Ti     4      Py                   2.008
     Ti     4      Pz                   2.007
     Ti     4      S                    0.249
     Ti     4      Dzz                  0.597
     Ti     4      Dzy                  0.505
     Ti     4      Dzx                  0.506
     Ti     4      Dxx-yy               0.602
     Ti     4      Dxy                  0.606
     Ti     4      Px                   0.286
     Ti     4      Py                   0.304
     Ti     4      Pz                   0.328
     Ti     5      S                    2.005
     Ti     5      Px                   2.008
     Ti     5      Py                   2.008
     Ti     5      Pz                   2.007
     Ti     5      S                    0.263
     Ti     5      Dzz                  0.601
     Ti     5      Dzy                  0.493
     Ti     5      Dzx                  0.499
     Ti     5      Dxx-yy               0.609
     Ti     5      Dxy                  0.606
     Ti     5      Px                   0.296
     Ti     5      Py                   0.315
     Ti     5      Pz                   0.327
     Ti     6      S                    2.001
     Ti     6      Px                   2.004
     Ti     6      Py                   2.003
     Ti     6      Pz                   2.005
     Ti     6      S                    0.302
     Ti     6      Dzz                  0.480
     Ti     6      Dzy                  0.618
     Ti     6      Dzx                  0.652
     Ti     6      Dxx-yy               0.452
     Ti     6      Dxy                  0.441
     Ti     6      Px                   0.330
     Ti     6      Py                   0.349
     Ti     6      Pz                   0.306
     Ti     7      S                    2.006
     Ti     7      Px                   2.009
     Ti     7      Py                   2.008
     Ti     7      Pz                   2.007
     Ti     7      S                    0.245
     Ti     7      Dzz                  0.581
     Ti     7      Dzy                  0.498
     Ti     7      Dzx                  0.513
     Ti     7      Dxx-yy               0.604
     Ti     7      Dxy                  0.612
     Ti     7      Px                   0.306
     Ti     7      Py                   0.317
     Ti     7      Pz                   0.344
     Ti     8      S                    2.005
     Ti     8      Px                   2.007
     Ti     8      Py                   2.007
     Ti     8      Pz                   2.007
     Ti     8      S                    0.252
     Ti     8      Dzz                  0.588
     Ti     8      Dzy                  0.500
     Ti     8      Dzx                  0.510
     Ti     8      Dxx-yy               0.598
     Ti     8      Dxy                  0.596
     Ti     8      Px                   0.315
     Ti     8      Py                   0.326
     Ti     8      Pz                   0.340
     Ti     9      S                    2.001
     Ti     9      Px                   2.004
     Ti     9      Py                   2.004
     Ti     9      Pz                   2.005
     Ti     9      S                    0.287
     Ti     9      Dzz                  0.498
     Ti     9      Dzy                  0.580
     Ti     9      Dzx                  0.610
     Ti     9      Dxx-yy               0.475
     Ti     9      Dxy                  0.462
     Ti     9      Px                   0.354
     Ti     9      Py                   0.349
     Ti     9      Pz                   0.337
     Ti    10      S                    2.005
     Ti    10      Px                   2.008
     Ti    10      Py                   2.008
     Ti    10      Pz                   2.007
     Ti    10      S                    0.249
     Ti    10      Dzz                  0.579
     Ti    10      Dzy                  0.514
     Ti    10      Dzx                  0.522
     Ti    10      Dxx-yy               0.614
     Ti    10      Dxy                  0.591
     Ti    10      Px                   0.276
     Ti    10      Py                   0.300
     Ti    10      Pz                   0.336
     Ti    11      S                    2.005
     Ti    11      Px                   2.008
     Ti    11      Py                   2.009
     Ti    11      Pz                   2.007
     Ti    11      S                    0.264
     Ti    11      Dzz                  0.599
     Ti    11      Dzy                  0.495
     Ti    11      Dzx                  0.492
     Ti    11      Dxx-yy               0.598
     Ti    11      Dxy                  0.619
     Ti    11      Px                   0.317
     Ti    11      Py                   0.304
     Ti    11      Pz                   0.324
     Ti    12      S                    2.001
     Ti    12      Px                   2.004
     Ti    12      Py                   2.003
     Ti    12      Pz                   2.005
     Ti    12      S                    0.285
     Ti    12      Dzz                  0.503
     Ti    12      Dzy                  0.604
     Ti    12      Dzx                  0.597
     Ti    12      Dxx-yy               0.451
     Ti    12      Dxy                  0.469
     Ti    12      Px                   0.345
     Ti    12      Py                   0.351
     Ti    12      Pz                   0.341
     Ti    13      S                    2.005
     Ti    13      Px                   2.008
     Ti    13      Py                   2.007
     Ti    13      Pz                   2.007
     Ti    13      S                    0.240
     Ti    13      Dzz                  0.573
     Ti    13      Dzy                  0.503
     Ti    13      Dzx                  0.517
     Ti    13      Dxx-yy               0.609
     Ti    13      Dxy                  0.608
     Ti    13      Px                   0.317
     Ti    13      Py                   0.313
     Ti    13      Pz                   0.344
     Ti    14      S                    2.005
     Ti    14      Px                   2.008
     Ti    14      Py                   2.008
     Ti    14      Pz                   2.007
     Ti    14      S                    0.256
     Ti    14      Dzz                  0.593
     Ti    14      Dzy                  0.505
     Ti    14      Dzx                  0.491
     Ti    14      Dxx-yy               0.595
     Ti    14      Dxy                  0.613
     Ti    14      Px                   0.324
     Ti    14      Py                   0.315
     Ti    14      Pz                   0.336
     Ti    15      S                    2.001
     Ti    15      Px                   2.004
     Ti    15      Py                   2.003
     Ti    15      Pz                   2.005
     Ti    15      S                    0.294
     Ti    15      Dzz                  0.498
     Ti    15      Dzy                  0.600
     Ti    15      Dzx                  0.611
     Ti    15      Dxx-yy               0.470
     Ti    15      Dxy                  0.444
     Ti    15      Px                   0.350
     Ti    15      Py                   0.350
     Ti    15      Pz                   0.339
     Ti    16      S                    2.004
     Ti    16      Px                   2.007
     Ti    16      Py                   2.007
     Ti    16      Pz                   2.006
     Ti    16      S                    0.255
     Ti    16      Dzz                  0.609
     Ti    16      Dzy                  0.496
     Ti    16      Dzx                  0.492
     Ti    16      Dxx-yy               0.593
     Ti    16      Dxy                  0.603
     Ti    16      Px                   0.308
     Ti    16      Py                   0.312
     Ti    16      Pz                   0.323
     Ti    17      S                    2.005
     Ti    17      Px                   2.007
     Ti    17      Py                   2.008
     Ti    17      Pz                   2.007
     Ti    17      S                    0.266
     Ti    17      Dzz                  0.608
     Ti    17      Dzy                  0.506
     Ti    17      Dzx                  0.495
     Ti    17      Dxx-yy               0.593
     Ti    17      Dxy                  0.595
     Ti    17      Px                   0.305
     Ti    17      Py                   0.314
     Ti    17      Pz                   0.329
     Ti    18      S                    2.001
     Ti    18      Px                   2.003
     Ti    18      Py                   2.004
     Ti    18      Pz                   2.005
     Ti    18      S                    0.292
     Ti    18      Dzz                  0.491
     Ti    18      Dzy                  0.601
     Ti    18      Dzx                  0.598
     Ti    18      Dxx-yy               0.466
     Ti    18      Dxy                  0.476
     Ti    18      Px                   0.353
     Ti    18      Py                   0.348
     Ti    18      Pz                   0.344
     Ti    19      S                    2.005
     Ti    19      Px                   2.008
     Ti    19      Py                   2.007
     Ti    19      Pz                   2.007
     Ti    19      S                    0.252
     Ti    19      Dzz                  0.576
     Ti    19      Dzy                  0.504
     Ti    19      Dzx                  0.519
     Ti    19      Dxx-yy               0.606
     Ti    19      Dxy                  0.611
     Ti    19      Px                   0.299
     Ti    19      Py                   0.292
     Ti    19      Pz                   0.341
     Ti    20      S                    2.005
     Ti    20      Px                   2.008
     Ti    20      Py                   2.007
     Ti    20      Pz                   2.007
     Ti    20      S                    0.254
     Ti    20      Dzz                  0.583
     Ti    20      Dzy                  0.502
     Ti    20      Dzx                  0.516
     Ti    20      Dxx-yy               0.601
     Ti    20      Dxy                  0.610
     Ti    20      Px                   0.294
     Ti    20      Py                   0.290
     Ti    20      Pz                   0.339
     Ti    21      S                    2.000
     Ti    21      Px                   2.003
     Ti    21      Py                   2.003
     Ti    21      Pz                   2.004
     Ti    21      S                    0.295
     Ti    21      Dzz                  0.512
     Ti    21      Dzy                  0.596
     Ti    21      Dzx                  0.596
     Ti    21      Dxx-yy               0.451
     Ti    21      Dxy                  0.467
     Ti    21      Px                   0.353
     Ti    21      Py                   0.349
     Ti    21      Pz                   0.334
     Ti    22      S                    2.005
     Ti    22      Px                   2.008
     Ti    22      Py                   2.007
     Ti    22      Pz                   2.007
     Ti    22      S                    0.249
     Ti    22      Dzz                  0.587
     Ti    22      Dzy                  0.497
     Ti    22      Dzx                  0.519
     Ti    22      Dxx-yy               0.603
     Ti    22      Dxy                  0.609
     Ti    22      Px                   0.304
     Ti    22      Py                   0.290
     Ti    22      Pz                   0.337
     Ti    23      S                    2.004
     Ti    23      Px                   2.007
     Ti    23      Py                   2.007
     Ti    23      Pz                   2.007
     Ti    23      S                    0.244
     Ti    23      Dzz                  0.569
     Ti    23      Dzy                  0.508
     Ti    23      Dzx                  0.512
     Ti    23      Dxx-yy               0.607
     Ti    23      Dxy                  0.602
     Ti    23      Px                   0.298
     Ti    23      Py                   0.315
     Ti    23      Pz                   0.349
     Ti    24      S                    2.001
     Ti    24      Px                   2.003
     Ti    24      Py                   2.003
     Ti    24      Pz                   2.004
     Ti    24      S                    0.294
     Ti    24      Dzz                  0.489
     Ti    24      Dzy                  0.615
     Ti    24      Dzx                  0.607
     Ti    24      Dxx-yy               0.444
     Ti    24      Dxy                  0.469
     Ti    24      Px                   0.347
     Ti    24      Py                   0.352
     Ti    24      Pz                   0.344
     Ti    25      S                    2.005
     Ti    25      Px                   2.007
     Ti    25      Py                   2.007
     Ti    25      Pz                   2.006
     Ti    25      S                    0.247
     Ti    25      Dzz                  0.582
     Ti    25      Dzy                  0.496
     Ti    25      Dzx                  0.506
     Ti    25      Dxx-yy               0.611
     Ti    25      Dxy                  0.597
     Ti    25      Px                   0.322
     Ti    25      Py                   0.328
     Ti    25      Pz                   0.340
     Ti    26      S                    2.004
     Ti    26      Px                   2.008
     Ti    26      Py                   2.006
     Ti    26      Pz                   2.005
     Ti    26      S                    0.247
     Ti    26      Dzz                  0.612
     Ti    26      Dzy                  0.479
     Ti    26      Dzx                  0.511
     Ti    26      Dxx-yy               0.581
     Ti    26      Dxy                  0.611
     Ti    26      Px                   0.283
     Ti    26      Py                   0.285
     Ti    26      Pz                   0.342
     Ti    27      S                    2.000
     Ti    27      Px                   2.003
     Ti    27      Py                   2.004
     Ti    27      Pz                   2.004
     Ti    27      S                    0.301
     Ti    27      Dzz                  0.493
     Ti    27      Dzy                  0.604
     Ti    27      Dzx                  0.598
     Ti    27      Dxx-yy               0.450
     Ti    27      Dxy                  0.491
     Ti    27      Px                   0.334
     Ti    27      Py                   0.324
     Ti    27      Pz                   0.333
     Ti    28      S                    2.003
     Ti    28      Px                   2.006
     Ti    28      Py                   2.006
     Ti    28      Pz                   2.006
     Ti    28      S                    0.268
     Ti    28      Dzz                  0.575
     Ti    28      Dzy                  0.509
     Ti    28      Dzx                  0.547
     Ti    28      Dxx-yy               0.517
     Ti    28      Dxy                  0.567
     Ti    28      Px                   0.307
     Ti    28      Py                   0.319
     Ti    28      Pz                   0.350
     Ti    29      S                    2.003
     Ti    29      Px                   2.007
     Ti    29      Py                   2.006
     Ti    29      Pz                   2.005
     Ti    29      S                    0.277
     Ti    29      Dzz                  0.560
     Ti    29      Dzy                  0.469
     Ti    29      Dzx                  0.502
     Ti    29      Dxx-yy               0.624
     Ti    29      Dxy                  0.611
     Ti    29      Px                   0.330
     Ti    29      Py                   0.332
     Ti    29      Pz                   0.269
     Ti    30      S                    2.000
     Ti    30      Px                   2.003
     Ti    30      Py                   2.003
     Ti    30      Pz                   2.004
     Ti    30      S                    0.292
     Ti    30      Dzz                  0.497
     Ti    30      Dzy                  0.599
     Ti    30      Dzx                  0.581
     Ti    30      Dxx-yy               0.464
     Ti    30      Dxy                  0.472
     Ti    30      Px                   0.366
     Ti    30      Py                   0.362
     Ti    30      Pz                   0.334
     Ti    31      S                    2.003
     Ti    31      Px                   2.006
     Ti    31      Py                   2.006
     Ti    31      Pz                   2.006
     Ti    31      S                    0.258
     Ti    31      Dzz                  0.550
     Ti    31      Dzy                  0.498
     Ti    31      Dzx                  0.563
     Ti    31      Dxx-yy               0.552
     Ti    31      Dxy                  0.551
     Ti    31      Px                   0.306
     Ti    31      Py                   0.306
     Ti    31      Pz                   0.352
     Ti    32      S                    2.001
     Ti    32      Px                   2.003
     Ti    32      Py                   2.004
     Ti    32      Pz                   2.004
     Ti    32      S                    0.300
     Ti    32      Dzz                  0.515
     Ti    32      Dzy                  0.598
     Ti    32      Dzx                  0.604
     Ti    32      Dxx-yy               0.438
     Ti    32      Dxy                  0.486
     Ti    32      Px                   0.331
     Ti    32      Py                   0.313
     Ti    32      Pz                   0.333
     Ti    33      S                    2.003
     Ti    33      Px                   2.006
     Ti    33      Py                   2.007
     Ti    33      Pz                   2.006
     Ti    33      S                    0.262
     Ti    33      Dzz                  0.591
     Ti    33      Dzy                  0.487
     Ti    33      Dzx                  0.534
     Ti    33      Dxx-yy               0.545
     Ti    33      Dxy                  0.595
     Ti    33      Px                   0.299
     Ti    33      Py                   0.274
     Ti    33      Pz                   0.354
     Ti    34      S                    2.002
     Ti    34      Px                   2.005
     Ti    34      Py                   2.005
     Ti    34      Pz                   2.005
     Ti    34      S                    0.287
     Ti    34      Dzz                  0.526
     Ti    34      Dzy                  0.588
     Ti    34      Dzx                  0.572
     Ti    34      Dxx-yy               0.488
     Ti    34      Dxy                  0.491
     Ti    34      Px                   0.304
     Ti    34      Py                   0.348
     Ti    34      Pz                   0.336
     Ti    35      S                    2.003
     Ti    35      Px                   2.007
     Ti    35      Py                   2.005
     Ti    35      Pz                   2.005
     Ti    35      S                    0.270
     Ti    35      Dzz                  0.594
     Ti    35      Dzy                  0.543
     Ti    35      Dzx                  0.517
     Ti    35      Dxx-yy               0.557
     Ti    35      Dxy                  0.541
     Ti    35      Px                   0.295
     Ti    35      Py                   0.262
     Ti    35      Pz                   0.348
     Ti    36      S                    2.004
     Ti    36      Px                   2.007
     Ti    36      Py                   2.007
     Ti    36      Pz                   2.006
     Ti    36      S                    0.318
     Ti    36      Dzz                  0.574
     Ti    36      Dzy                  0.484
     Ti    36      Dzx                  0.494
     Ti    36      Dxx-yy               0.608
     Ti    36      Dxy                  0.623
     Ti    36      Px                   0.367
     Ti    36      Py                   0.379
     Ti    36      Pz                   0.241
     Ti    37      S                    2.002
     Ti    37      Px                   2.005
     Ti    37      Py                   2.005
     Ti    37      Pz                   2.006
     Ti    37      S                    0.283
     Ti    37      Dzz                  0.509
     Ti    37      Dzy                  0.584
     Ti    37      Dzx                  0.570
     Ti    37      Dxx-yy               0.528
     Ti    37      Dxy                  0.455
     Ti    37      Px                   0.339
     Ti    37      Py                   0.340
     Ti    37      Pz                   0.327
     Ti    38      S                    2.003
     Ti    38      Px                   2.006
     Ti    38      Py                   2.006
     Ti    38      Pz                   2.006
     Ti    38      S                    0.256
     Ti    38      Dzz                  0.559
     Ti    38      Dzy                  0.557
     Ti    38      Dzx                  0.511
     Ti    38      Dxx-yy               0.594
     Ti    38      Dxy                  0.509
     Ti    38      Px                   0.315
     Ti    38      Py                   0.302
     Ti    38      Pz                   0.343
     Ti    39      S                    2.003
     Ti    39      Px                   2.006
     Ti    39      Py                   2.005
     Ti    39      Pz                   2.006
     Ti    39      S                    0.290
     Ti    39      Dzz                  0.541
     Ti    39      Dzy                  0.601
     Ti    39      Dzx                  0.564
     Ti    39      Dxx-yy               0.498
     Ti    39      Dxy                  0.472
     Ti    39      Px                   0.300
     Ti    39      Py                   0.348
     Ti    39      Pz                   0.335
     Ti    40      S                    2.003
     Ti    40      Px                   2.006
     Ti    40      Py                   2.005
     Ti    40      Pz                   2.006
     Ti    40      S                    0.273
     Ti    40      Dzz                  0.578
     Ti    40      Dzy                  0.520
     Ti    40      Dzx                  0.521
     Ti    40      Dxx-yy               0.572
     Ti    40      Dxy                  0.542
     Ti    40      Px                   0.324
     Ti    40      Py                   0.260
     Ti    40      Pz                   0.338
     Ti    41      S                    2.004
     Ti    41      Px                   2.006
     Ti    41      Py                   2.007
     Ti    41      Pz                   2.006
     Ti    41      S                    0.268
     Ti    41      Dzz                  0.581
     Ti    41      Dzy                  0.508
     Ti    41      Dzx                  0.528
     Ti    41      Dxx-yy               0.604
     Ti    41      Dxy                  0.588
     Ti    41      Px                   0.306
     Ti    41      Py                   0.294
     Ti    41      Pz                   0.298
     Ti    42      S                    2.001
     Ti    42      Px                   2.004
     Ti    42      Py                   2.003
     Ti    42      Pz                   2.005
     Ti    42      S                    0.311
     Ti    42      Dzz                  0.482
     Ti    42      Dzy                  0.607
     Ti    42      Dzx                  0.638
     Ti    42      Dxx-yy               0.467
     Ti    42      Dxy                  0.451
     Ti    42      Px                   0.328
     Ti    42      Py                   0.373
     Ti    42      Pz                   0.309
     Ti    43      S                    2.003
     Ti    43      Px                   2.006
     Ti    43      Py                   2.007
     Ti    43      Pz                   2.006
     Ti    43      S                    0.279
     Ti    43      Dzz                  0.578
     Ti    43      Dzy                  0.498
     Ti    43      Dzx                  0.492
     Ti    43      Dxx-yy               0.574
     Ti    43      Dxy                  0.618
     Ti    43      Px                   0.331
     Ti    43      Py                   0.328
     Ti    43      Pz                   0.277
     Ti    44      S                    2.004
     Ti    44      Px                   2.007
     Ti    44      Py                   2.007
     Ti    44      Pz                   2.006
     Ti    44      S                    0.283
     Ti    44      Dzz                  0.577
     Ti    44      Dzy                  0.498
     Ti    44      Dzx                  0.497
     Ti    44      Dxx-yy               0.591
     Ti    44      Dxy                  0.599
     Ti    44      Px                   0.352
     Ti    44      Py                   0.332
     Ti    44      Pz                   0.291
     Ti    45      S                    2.001
     Ti    45      Px                   2.003
     Ti    45      Py                   2.003
     Ti    45      Pz                   2.005
     Ti    45      S                    0.313
     Ti    45      Dzz                  0.474
     Ti    45      Dzy                  0.623
     Ti    45      Dzx                  0.624
     Ti    45      Dxx-yy               0.467
     Ti    45      Dxy                  0.454
     Ti    45      Px                   0.325
     Ti    45      Py                   0.358
     Ti    45      Pz                   0.312
     Ti    46      S                    2.004
     Ti    46      Px                   2.008
     Ti    46      Py                   2.007
     Ti    46      Pz                   2.006
     Ti    46      S                    0.267
     Ti    46      Dzz                  0.621
     Ti    46      Dzy                  0.507
     Ti    46      Dzx                  0.484
     Ti    46      Dxx-yy               0.600
     Ti    46      Dxy                  0.603
     Ti    46      Px                   0.315
     Ti    46      Py                   0.290
     Ti    46      Pz                   0.293
     Ti    47      S                    2.001
     Ti    47      Px                   2.004
     Ti    47      Py                   2.004
     Ti    47      Pz                   2.005
     Ti    47      S                    0.294
     Ti    47      Dzz                  0.515
     Ti    47      Dzy                  0.577
     Ti    47      Dzx                  0.600
     Ti    47      Dxx-yy               0.474
     Ti    47      Dxy                  0.497
     Ti    47      Px                   0.322
     Ti    47      Py                   0.280
     Ti    47      Pz                   0.316
     Ti    48      S                    2.006
     Ti    48      Px                   2.008
     Ti    48      Py                   2.009
     Ti    48      Pz                   2.008
     Ti    48      S                    0.240
     Ti    48      Dzz                  0.575
     Ti    48      Dzy                  0.527
     Ti    48      Dzx                  0.514
     Ti    48      Dxx-yy               0.600
     Ti    48      Dxy                  0.591
     Ti    48      Px                   0.309
     Ti    48      Py                   0.303
     Ti    48      Pz                   0.353
     Ti    49      S                    2.005
     Ti    49      Px                   2.008
     Ti    49      Py                   2.007
     Ti    49      Pz                   2.007
     Ti    49      S                    0.236
     Ti    49      Dzz                  0.579
     Ti    49      Dzy                  0.498
     Ti    49      Dzx                  0.518
     Ti    49      Dxx-yy               0.604
     Ti    49      Dxy                  0.620
     Ti    49      Px                   0.304
     Ti    49      Py                   0.287
     Ti    49      Pz                   0.335
     Ti    50      S                    2.000
     Ti    50      Px                   2.003
     Ti    50      Py                   2.003
     Ti    50      Pz                   2.004
     Ti    50      S                    0.292
     Ti    50      Dzz                  0.502
     Ti    50      Dzy                  0.578
     Ti    50      Dzx                  0.612
     Ti    50      Dxx-yy               0.473
     Ti    50      Dxy                  0.457
     Ti    50      Px                   0.327
     Ti    50      Py                   0.362
     Ti    50      Pz                   0.333
     Ti    51      S                    2.005
     Ti    51      Px                   2.007
     Ti    51      Py                   2.008
     Ti    51      Pz                   2.007
     Ti    51      S                    0.258
     Ti    51      Dzz                  0.584
     Ti    51      Dzy                  0.515
     Ti    51      Dzx                  0.471
     Ti    51      Dxx-yy               0.578
     Ti    51      Dxy                  0.631
     Ti    51      Px                   0.310
     Ti    51      Py                   0.298
     Ti    51      Pz                   0.336
     Ti    52      S                    2.005
     Ti    52      Px                   2.008
     Ti    52      Py                   2.007
     Ti    52      Pz                   2.007
     Ti    52      S                    0.246
     Ti    52      Dzz                  0.580
     Ti    52      Dzy                  0.502
     Ti    52      Dzx                  0.520
     Ti    52      Dxx-yy               0.602
     Ti    52      Dxy                  0.608
     Ti    52      Px                   0.305
     Ti    52      Py                   0.289
     Ti    52      Pz                   0.345
     Ti    53      S                    2.001
     Ti    53      Px                   2.004
     Ti    53      Py                   2.004
     Ti    53      Pz                   2.005
     Ti    53      S                    0.296
     Ti    53      Dzz                  0.511
     Ti    53      Dzy                  0.592
     Ti    53      Dzx                  0.611
     Ti    53      Dxx-yy               0.465
     Ti    53      Dxy                  0.483
     Ti    53      Px                   0.343
     Ti    53      Py                   0.279
     Ti    53      Pz                   0.334
     Ti    54      S                    2.005
     Ti    54      Px                   2.008
     Ti    54      Py                   2.008
     Ti    54      Pz                   2.006
     Ti    54      S                    0.246
     Ti    54      Dzz                  0.583
     Ti    54      Dzy                  0.509
     Ti    54      Dzx                  0.484
     Ti    54      Dxx-yy               0.607
     Ti    54      Dxy                  0.611
     Ti    54      Px                   0.300
     Ti    54      Py                   0.318
     Ti    54      Pz                   0.349
     Ti    55      S                    2.005
     Ti    55      Px                   2.008
     Ti    55      Py                   2.007
     Ti    55      Pz                   2.006
     Ti    55      S                    0.226
     Ti    55      Dzz                  0.593
     Ti    55      Dzy                  0.500
     Ti    55      Dzx                  0.494
     Ti    55      Dxx-yy               0.599
     Ti    55      Dxy                  0.623
     Ti    55      Px                   0.294
     Ti    55      Py                   0.308
     Ti    55      Pz                   0.357
     Ti    56      S                    2.002
     Ti    56      Px                   2.005
     Ti    56      Py                   2.004
     Ti    56      Pz                   2.004
     Ti    56      S                    0.266
     Ti    56      Dzz                  0.559
     Ti    56      Dzy                  0.515
     Ti    56      Dzx                  0.522
     Ti    56      Dxx-yy               0.532
     Ti    56      Dxy                  0.580
     Ti    56      Px                   0.304
     Ti    56      Py                   0.305
     Ti    56      Pz                   0.344
     Ti    57      S                    2.005
     Ti    57      Px                   2.008
     Ti    57      Py                   2.008
     Ti    57      Pz                   2.007
     Ti    57      S                    0.261
     Ti    57      Dzz                  0.566
     Ti    57      Dzy                  0.521
     Ti    57      Dzx                  0.509
     Ti    57      Dxx-yy               0.597
     Ti    57      Dxy                  0.610
     Ti    57      Px                   0.310
     Ti    57      Py                   0.313
     Ti    57      Pz                   0.346
     Ti    58      S                    2.002
     Ti    58      Px                   2.005
     Ti    58      Py                   2.005
     Ti    58      Pz                   2.005
     Ti    58      S                    0.278
     Ti    58      Dzz                  0.525
     Ti    58      Dzy                  0.528
     Ti    58      Dzx                  0.590
     Ti    58      Dxx-yy               0.450
     Ti    58      Dxy                  0.549
     Ti    58      Px                   0.360
     Ti    58      Py                   0.320
     Ti    58      Pz                   0.336
     Ti    59      S                    2.003
     Ti    59      Px                   2.006
     Ti    59      Py                   2.006
     Ti    59      Pz                   2.005
     Ti    59      S                    0.258
     Ti    59      Dzz                  0.575
     Ti    59      Dzy                  0.500
     Ti    59      Dzx                  0.541
     Ti    59      Dxx-yy               0.541
     Ti    59      Dxy                  0.573
     Ti    59      Px                   0.299
     Ti    59      Py                   0.314
     Ti    59      Pz                   0.345
     Ti    60      S                    2.005
     Ti    60      Px                   2.008
     Ti    60      Py                   2.007
     Ti    60      Pz                   2.006
     Ti    60      S                    0.259
     Ti    60      Dzz                  0.596
     Ti    60      Dzy                  0.483
     Ti    60      Dzx                  0.508
     Ti    60      Dxx-yy               0.598
     Ti    60      Dxy                  0.606
     Ti    60      Px                   0.310
     Ti    60      Py                   0.323
     Ti    60      Pz                   0.334
     Ti    61      S                    2.003
     Ti    61      Px                   2.006
     Ti    61      Py                   2.006
     Ti    61      Pz                   2.005
     Ti    61      S                    0.280
     Ti    61      Dzz                  0.547
     Ti    61      Dzy                  0.509
     Ti    61      Dzx                  0.603
     Ti    61      Dxx-yy               0.471
     Ti    61      Dxy                  0.548
     Ti    61      Px                   0.334
     Ti    61      Py                   0.277
     Ti    61      Pz                   0.341
     Ti    62      S                    2.004
     Ti    62      Px                   2.008
     Ti    62      Py                   2.006
     Ti    62      Pz                   2.006
     Ti    62      S                    0.263
     Ti    62      Dzz                  0.605
     Ti    62      Dzy                  0.487
     Ti    62      Dzx                  0.504
     Ti    62      Dxx-yy               0.621
     Ti    62      Dxy                  0.544
     Ti    62      Px                   0.308
     Ti    62      Py                   0.335
     Ti    62      Pz                   0.325
     Ti    63      S                    2.002
     Ti    63      Px                   2.006
     Ti    63      Py                   2.005
     Ti    63      Pz                   2.005
     Ti    63      S                    0.287
     Ti    63      Dzz                  0.516
     Ti    63      Dzy                  0.587
     Ti    63      Dzx                  0.561
     Ti    63      Dxx-yy               0.508
     Ti    63      Dxy                  0.509
     Ti    63      Px                   0.290
     Ti    63      Py                   0.328
     Ti    63      Pz                   0.338
[...]
              Al 3 -- Ti 38                  0.24        2.81611
             Ti 2  -- Ti 7                   0.07        2.81629
             Ti 3  -- Ti 8                   0.04        2.81687
             Ti 48 -- Ti 51                  0.04        2.81688
             Ti 10 -- Ti 13                  0.04        2.81733
             Ti 27 -- Ti 30                  0.38        2.81820
             Ti 56 -- V 3                    0.19        2.81858
             Ti 18 -- Ti 21                  0.34        2.81860
             Ti 36 -- Ti 59                  0.20        2.81891
             Ti 30 -- V 1                    0.20        2.81892
             Ti 66 -- Ti 69                  0.29        2.81899
              Al 3 -- Ti 59                  0.20        2.81960
             Ti 11 -- Ti 17                  0.03        2.81972
             Ti 61 -- V 2                    0.31        2.82047
             Ti 48 -- Ti 58                  0.10        2.82049
             Ti 22 -- Ti 25                  0.04        2.82197
             Ti 13 -- Ti 16                  0.04        2.82197
             Ti 4  -- Ti 7                   0.07        2.82355
             Ti 3  -- Ti 5                   0.03        2.82363
             Ti 61 -- V 3                    0.16        2.82382
             Ti 5  -- Ti 8                   0.03        2.82498
              Al 5 -- Ti 45                  0.42        2.82512
             Ti 2  -- Ti 4                   0.03        2.82571
             Ti 50 -- Ti 53                  0.37        2.82623
             Ti 64 -- Ti 66                  0.15        2.82725
             Ti 12 -- Ti 15                  0.37        2.82737
             Ti 10 -- Ti 16                  0.03        2.82761
             Ti 35 -- Ti 38                  0.22        2.82798
             Ti 47 -- Ti 50                  0.34        2.82889
             Ti 35 -- Ti 40                  0.15        2.82920
              Al 1 -- Ti 1                   0.34        2.83026
              Al 1 -- Ti 6                   0.34        2.83135
             Ti 28 -- Ti 33                  0.16        2.83171
             Ti 21 -- Ti 24                  0.36        2.83212
             Ti 27 -- Ti 32                  0.33        2.83221
             Ti 19 -- Ti 25                  0.04        2.83283
              Al 5 -- Ti 42                  0.35        2.83378
             Ti 65 -- Ti 70                  0.08        2.83400
             Ti 62 -- V 2                    0.08        2.83423
             Ti 63 -- Ti 70                  0.07        2.83522
             Ti 9  -- Ti 12                  0.33        2.83585
             Ti 11 -- Ti 14                  0.07        2.83651
             Ti 68 -- Ti 70                  0.06        2.83931
             Ti 69 -- V 3                    0.13        2.83962
             Ti 23 -- Ti 26                  0.10        2.83962
             Ti 52 -- Ti 55                  0.02        2.83968
             Ti 49 -- Ti 55                  0.03        2.84200
             Ti 20 -- Ti 26                  0.07        2.84449
             Ti 61 -- Ti 62                  0.02        2.84469
             Ti 57 -- Ti 60                  0.09        2.84578
             Ti 42 -- Ti 44                  0.20        2.84748
             Ti 63 -- Ti 69                  0.27        2.84822
              Al 4 -- Ti 36                  0.20        2.85000
             Ti 28 -- V 2                    0.17        2.85072
             Ti 2  -- Ti 37                  0.16        2.85153
             Ti 67 -- Ti 69                  0.15        2.85294
             Ti 60 -- Ti 62                  0.07        2.85449
              Al 7 -- Ti 27                  0.24        2.85474
             Ti 18 -- Ti 62                  0.14        2.85584
             Ti 32 -- Ti 43                  0.12        2.85649
             Ti 31 -- Ti 33                  0.15        2.86084
             Ti 4  -- Ti 37                  0.15        2.86140
             Ti 7  -- Ti 39                  0.15        2.86180
             Ti 36 -- Ti 38                  0.17        2.86234
             Ti 1  -- Ti 64                  0.13        2.86442
             Ti 44 -- Ti 66                  0.15        2.86504
             Ti 53 -- Ti 67                  0.16        2.86643
             Ti 4  -- Ti 39                  0.11        2.86722
              Al 7 -- Ti 47                  0.23        2.86742
             Ti 66 -- Ti 67                  0.14        2.86751
             Ti 36 -- Ti 56                  0.17        2.86806
             Ti 34 -- Ti 35                  0.11        2.86854
              Al 2 -- V 2                    0.22        2.86894
             Ti 51 -- Ti 54                  0.10        2.87030
             Ti 34 -- Ti 39                  0.34        2.87094
              Al 8 -- Ti 63                  0.24        2.87156
             Ti 3  -- Ti 37                  0.14        2.87706
              Al 8 -- Ti 69                  0.25        2.87810
             Ti 5  -- Ti 39                  0.11        2.87884
             Ti 2  -- Ti 34                  0.11        2.87890
             Ti 68 -- Ti 69                  0.08        2.88088
              Al 3 -- Ti 33                  0.22        2.88294
             Ti 33 -- Ti 61                  0.11        2.88486
             Ti 11 -- Ti 34                  0.13        2.88489
              Al 6 -- Ti 63                  0.22        2.88553
             Ti 57 -- Ti 58                  0.13        2.88562
              Al 2 -- Ti 32                  0.25        2.88653
             Ti 51 -- Ti 61                  0.11        2.88685
             Ti 44 -- Ti 50                  0.14        2.88831
             Ti 6  -- Ti 67                  0.10        2.89068
             Ti 60 -- Ti 61                  0.14        2.89125
             Ti 9  -- Ti 17                  0.15        2.89279
             Ti 31 -- Ti 36                  0.14        2.89453
             Ti 27 -- Ti 29                  0.14        2.89591
             Ti 35 -- Ti 63                  0.13        2.89680
              Al 3 -- Ti 36                  0.17        2.89790
              Al 4 -- Ti 28                  0.18        2.89802
             Ti 64 -- Ti 67                  0.08        2.89910
             Ti 58 -- Ti 61                  0.27        2.90053
             Ti 41 -- Ti 43                  0.06        2.90106
             Ti 37 -- Ti 38                  0.10        2.90112
              Al 5 -- Ti 46                  0.22        2.90126
             Ti 56 -- V 2                    0.17        2.90397
             Ti 24 -- Ti 60                  0.12        2.90419
             Ti 46 -- Ti 53                  0.13        2.90440
             Ti 24 -- Ti 70                  0.11        2.90501
              Al 5 -- Ti 17                  0.18        2.90502
              Al 2 -- Ti 53                  0.25        2.90507
             Ti 9  -- Ti 10                  0.12        2.90508
             Ti 33 -- V 2                    0.14        2.90527
             Ti 63 -- Ti 64                  0.11        2.90529
             Ti 15 -- Ti 54                  0.13        2.90665
             Ti 46 -- Ti 47                  0.12        2.90701
             Ti 43 -- Ti 53                  0.10        2.90722
             Ti 29 -- Ti 47                  0.14        2.90734
              Al 8 -- Ti 6                   0.21        2.90735
              Al 4 -- Ti 40                  0.22        2.90799
             Ti 15 -- Ti 16                  0.13        2.90853
             Ti 9  -- Ti 57                  0.10        2.90861
             Ti 5  -- Ti 37                  0.11        2.90895
             Ti 21 -- Ti 68                  0.15        2.90901
             Ti 11 -- Ti 37                  0.13        2.91140
              Al 6 -- Ti 47                  0.23        2.91231
             Ti 9  -- Ti 54                  0.14        2.91310
             Ti 8  -- Ti 34                  0.10        2.91422
             Ti 7  -- Ti 34                  0.12        2.91424
             Ti 39 -- Ti 40                  0.11        2.91439
             Ti 21 -- Ti 57                  0.15        2.91769
             Ti 16 -- Ti 18                  0.13        2.91792
             Ti 45 -- Ti 46                  0.15        2.91832
             Ti 26 -- Ti 27                  0.15        2.91905
             Ti 6  -- Ti 7                   0.10        2.91927
             Ti 40 -- Ti 69                  0.11        2.91953
             Ti 51 -- Ti 58                  0.08        2.91987
             Ti 44 -- Ti 45                  0.14        2.92015
              Al 8 -- Ti 1                   0.20        2.92038
              Al 1 -- Ti 64                  0.17        2.92049
             Ti 8  -- Ti 39                  0.12        2.92069
             Ti 12 -- Ti 52                  0.10        2.92136
             Ti 18 -- Ti 20                  0.13        2.92170
             Ti 21 -- Ti 65                  0.17        2.92216
             Ti 66 -- Ti 68                  0.17        2.92218
             Ti 52 -- Ti 53                  0.12        2.92248
             Ti 14 -- Ti 45                  0.13        2.92359
             Ti 58 -- Ti 59                  0.17        2.92384
              Al 8 -- Ti 47                  0.19        2.92405
              Al 6 -- Ti 50                  0.17        2.92479
             Ti 17 -- Ti 39                  0.09        2.92546
             Ti 18 -- Ti 56                  0.14        2.92584
             Ti 43 -- Ti 50                  0.10        2.92678
             Ti 31 -- Ti 58                  0.08        2.92687
              Al 5 -- Ti 10                  0.15        2.92721
              Al 7 -- Ti 53                  0.16        2.92732
             Ti 48 -- V 2                    0.12        2.92751
             Ti 12 -- Ti 13                  0.11        2.92752
             Ti 11 -- Ti 42                  0.13        2.92826
             Ti 41 -- Ti 42                  0.13        2.92863
             Ti 3  -- Ti 34                  0.10        2.92894
             Ti 24 -- Ti 62                  0.13        2.92913
              Al 1 -- Ti 4                   0.16        2.92964
              Al 1 -- Ti 67                  0.16        2.93090
             Ti 47 -- Ti 55                  0.08        2.93101
              Al 5 -- Al 6                   0.21        2.93121
              Al 6 -- Ti 66                  0.19        2.93129
             Ti 46 -- Ti 69                  0.12        2.93135
             Ti 29 -- Ti 58                  0.06        2.93161
             Ti 14 -- Ti 39                  0.11        2.93190
             Ti 14 -- Ti 37                  0.12        2.93465
             Ti 44 -- Ti 46                  0.10        2.93584
              Al 1 -- Ti 65                  0.17        2.93693
             Ti 6  -- Ti 68                  0.10        2.93774
             Ti 24 -- Ti 68                  0.10        2.93789
             Ti 19 -- Ti 27                  0.11        2.93868
             Ti 69 -- Ti 70                  0.04        2.93939
             Ti 12 -- Ti 49                  0.13        2.94029
             Ti 28 -- Ti 58                  0.06        2.94058
             Ti 30 -- Ti 41                  0.10        2.94133
             Ti 9  -- Ti 16                  0.11        2.94142
             Ti 59 -- Ti 61                  0.12        2.94159
             Ti 20 -- Ti 21                  0.09        2.94187
             Ti 1  -- Ti 2                   0.11        2.94270
             Ti 15 -- Ti 52                  0.08        2.94291
              Al 5 -- Ti 41                  0.16        2.94524
             Ti 13 -- Ti 42                  0.12        2.94570
             Ti 8  -- Ti 32                  0.10        2.94595
             Ti 38 -- Ti 39                  0.11        2.94628
             Ti 1  -- Ti 7                   0.09        2.94655
             Ti 10 -- Ti 42                  0.09        2.94666
             Ti 1  -- Ti 25                  0.12        2.94682
             Ti 11 -- Ti 12                  0.10        2.94715
              Al 2 -- Ti 29                  0.21        2.94794
             Ti 5  -- Ti 30                  0.15        2.94879
             Ti 22 -- Ti 32                  0.12        2.94935
             Ti 24 -- Ti 25                  0.15        2.94986
              Al 1 -- Ti 3                   0.16        2.95101
              Al 5 -- Ti 11                  0.17        2.95165
             Ti 14 -- Ti 42                  0.16        2.95176
             Ti 63 -- Ti 65                  0.05        2.95209
             Ti 12 -- Ti 14                  0.10        2.95254
             Ti 12 -- Ti 48                  0.10        2.95267
              Al 1 -- Ti 5                   0.17        2.95326
             Ti 63 -- V 3                    0.16        2.95379
             Ti 22 -- Ti 30                  0.12        2.95379
             Ti 15 -- Ti 55                  0.14        2.95485
             Ti 14 -- Ti 15                  0.11        2.95526
             Ti 2  -- Ti 12                  0.12        2.95527
             Ti 18 -- Ti 70                  0.08        2.95532
              Al 1 -- Ti 2                   0.13        2.95615
             Ti 51 -- Ti 53                  0.12        2.95677
             Ti 50 -- Ti 51                  0.10        2.95683
             Ti 18 -- Ti 19                  0.09        2.95814
             Ti 15 -- Ti 17                  0.09        2.95831
             Ti 43 -- Ti 45                  0.19        2.95982
             Ti 9  -- Ti 11                  0.13        2.96061
             Ti 5  -- Ti 6                   0.12        2.96075
              Al 4 -- Ti 35                  0.17        2.96160
             Ti 21 -- Ti 22                  0.11        2.96187
             Ti 3  -- Ti 27                  0.13        2.96188
              Al 1 -- Ti 19                  0.15        2.96189
             Ti 58 -- Ti 60                  0.14        2.96192
             Ti 56 -- Ti 59                  0.19        2.96250
             Ti 9  -- Ti 55                  0.11        2.96258
             Ti 53 -- Ti 55                  0.03        2.96267
             Ti 21 -- Ti 60                  0.14        2.96272
             Ti 18 -- Ti 26                  0.13        2.96282
             Ti 49 -- Ti 50                  0.11        2.96290
             Ti 41 -- Ti 50                  0.12        2.96312
              Al 6 -- Ti 42                  0.19        2.96358
             Ti 38 -- Ti 69                  0.12        2.96430
             Ti 32 -- V 1                    0.16        2.96434
             Ti 26 -- Ti 45                  0.09        2.96486
             Ti 31 -- Ti 61                  0.07        2.96486
             Ti 9  -- Ti 48                  0.13        2.96557
             Ti 17 -- Ti 34                  0.11        2.96752
             Ti 23 -- Ti 42                  0.11        2.96910
             Ti 4  -- Ti 12                  0.12        2.96914
             Ti 47 -- Ti 49                  0.08        2.96926
             Ti 19 -- Ti 30                  0.13        2.96936
             Ti 44 -- Ti 53                  0.12        2.96986
             Ti 10 -- Ti 12                  0.10        2.97034
             Ti 24 -- V 3                    0.17        2.97059
             Ti 4  -- Ti 6                   0.11        2.97125
             Ti 3  -- Ti 30                  0.14        2.97147
             Ti 34 -- Ti 40                  0.12        2.97199
             Ti 50 -- Ti 64                  0.12        2.97209
             Ti 18 -- Ti 57                  0.12        2.97211
              Al 8 -- Ti 53                  0.16        2.97244
             Ti 6  -- Ti 25                  0.09        2.97339
             Ti 61 -- V 1                    0.12        2.97377
             Ti 6  -- Ti 55                  0.11        2.97438
             Ti 18 -- Ti 65                  0.11        2.97439
             Ti 23 -- Ti 32                  0.12        2.97453
             Ti 4  -- Ti 15                  0.11        2.97504
             Ti 59 -- Ti 69                  0.11        2.97526
             Ti 13 -- Ti 15                  0.11        2.97539
             Ti 25 -- Ti 32                  0.10        2.97629
             Ti 7  -- Ti 9                   0.11        2.97647
             Ti 12 -- Ti 60                  0.11        2.97704
             Ti 12 -- Ti 57                  0.13        2.97745
             Ti 26 -- Ti 32                  0.13        2.97747
             Ti 1  -- Ti 70                  0.12        2.97749
             Ti 50 -- Ti 52                  0.13        2.97805
             Ti 18 -- Ti 25                  0.12        2.97857
             Ti 47 -- Ti 54                  0.13        2.97892
             Ti 48 -- Ti 50                  0.07        2.97974
             Ti 56 -- Ti 63                  0.12        2.98016
             Ti 1  -- Ti 3                   0.12        2.98036
             Ti 28 -- Ti 37                  0.13        2.98041
             Ti 15 -- Ti 60                  0.11        2.98118
             Ti 25 -- Ti 27                  0.07        2.98123
             Ti 8  -- Ti 27                  0.08        2.98241
             Ti 28 -- Ti 34                  0.11        2.98259
             Ti 46 -- Ti 63                  0.13        2.98261
              Al 1 -- Ti 68                  0.12        2.98369
             Ti 38 -- Ti 66                  0.07        2.98421
             Ti 1  -- Ti 8                   0.09        2.98478
             Ti 13 -- Ti 45                  0.11        2.98504
             Ti 40 -- Ti 63                  0.09        2.98516
             Ti 31 -- Ti 37                  0.10        2.98547
             Ti 47 -- Ti 48                  0.10        2.98637
             Ti 47 -- Ti 64                  0.09        2.98650
             Ti 13 -- Ti 24                  0.10        2.98841
             Ti 5  -- Ti 32                  0.13        2.98842
             Ti 31 -- Ti 39                  0.12        2.98859
             Ti 23 -- Ti 24                  0.12        2.98919
             Ti 6  -- Ti 22                  0.12        2.98963
             Ti 29 -- Ti 30                  0.15        2.99122
             Ti 22 -- Ti 24                  0.10        2.99400
             Ti 50 -- V 1                    0.17        2.99439
             Ti 9  -- Ti 49                  0.07        2.99443
             Ti 1  -- Ti 65                  0.10        2.99530
             Ti 59 -- Ti 66                  0.12        2.99540
             Ti 35 -- Ti 37                  0.09        2.99569
             Ti 19 -- Ti 21                  0.11        2.99584
             Ti 1  -- Ti 49                  0.08        2.99626
             Ti 6  -- Ti 8                   0.08        2.99723
             Ti 21 -- Ti 23                  0.10        2.99754
             Ti 21 -- Ti 59                  0.16        2.99953
             Ti 20 -- Ti 30                  0.11        2.99999
======================================================================

 
 A BibTeX formatted list of references used in this run has been written to 
 sqs_hex_sc3x3x3_Ti70Al8V3_frame0_05.bib
 
Initialisation time =     23.43 s
Calculation time    =   6532.63 s
Finalisation time   =      0.42 s
Total time          =   6556.49 s
Peak Memory Use     = 2605208 kB
 
Overall parallel efficiency rating: Mediocre (55%)
 
Data was distributed by:-
G-vector (16-way); efficiency rating: Mediocre (56%)
k-point (15-way); efficiency rating: Excellent (95%)
