 +-------------------------------------------------+
 |                                                 |
 |      CCC   AA    SSS  TTTTT  EEEEE  PPPP        |
 |     C     A  A  S       T    E      P   P       |
 |     C     AAAA   SS     T    EEE    PPPP        |
 |     C     A  A     S    T    E      P           |
 |      CCC  A  A  SSS     T    EEEEE  P           |
 |                                                 |
 +-------------------------------------------------+
 |                                                 |
 | Welcome to Academic Release CASTEP version 24.1 |
 | Ab Initio Total Energy Program                  |
 |                                                 |
 | Authors:                                        |
 | M. Segall, M. Probert, C. Pickard, P. Hasnip,   |
 | S. Clark, K. Refson, J. R. Yates,               |
 | A. Bartok-Partay, M. Payne                      |
 |                                                 |
 | Contributors:                                   |
 | P. Lindan, P. Haynes, J. White, V. Milman,      |
 | N. Govind, M. Gibson, P. Tulip, V. Cocula,      |
 | B. Montanari, D. Quigley, M. Glover,            |
 | L. Bernasconi, A. Perlov, M. Plummer,           |
 | E. McNellis, J. Meyer, J. Gale, D. Jochym       |
 | J. Aarons, B. Walker, R. Gillen, D. Jones       |
 | T. Green, I. J. Bush, C. J. Armstrong,          |
 | E. J. Higgins, E. L. Brown, M. S. McFly,        |
 | J. Wilkins, B-C. Shih, P. J. P. Byrne,          |
 | R. J. Maurer, J. C. Womack, J. Dziedzic,        |
 | L. LeBlanc, T. K. Stenczel, J. Kermode,         |
 | S. Sturniolo, B. Shi, B. Durham, M. Evans,      |
 | M. J. Smith, A. Tamerus, Z. Hawkhead,           |
 | V. Ravindran, T. Hollins, S. A. Joyce,          |
 | R. T. Strong, A. M. Reilly                      |
 |                                                 |
 | Copyright (c) 2000 - 2023                       |
 |                                                 |
 |     Distributed under license from Cambridge    |
 |     Enterprise for academic use only.           |
 |                                                 |
 | Please cite                                     |
 |                                                 |
 |     "First principles methods using CASTEP"     |
 |                                                 |
 |         Zeitschrift fuer Kristallographie       |
 |           220(5-6) pp. 567-570 (2005)           |
 |                                                 |
 | S. J. Clark, M. D. Segall, C. J. Pickard,       |
 | P. J. Hasnip, M. J. Probert, K. Refson,         |
 | M. C. Payne                                     |
 |                                                 |
 |       in all publications arising from          |
 |              your use of CASTEP                 |
 |                                                 |
 +-------------------------------------------------+
 |                                                 |
 |              http://www.castep.org              |
 |                                                 |
 +-------------------------------------------------+



 Compiled for linux_x86_64_gfortran10 on Tue, 02 May 2023 15:31:46 +0100
 from code version db08e394c+  default  Mon May 1 16:40:39 2023 +0100
 Compiler: GNU Fortran 10.2.0; Optimisation: fast
 Comms   : Open MPI v4.0.5
 MATHLIBS: openblas (LAPACK version 3.9.0)
 FFT Lib : fftw3 version fftw-3.3.8-sse2-avx-avx2-avx2_128
 Fundamental constants values: CODATA 2018

 Run started: Wed, 07 Feb 2024 16:21:58 +0000

 Atomic calculation performed for Al: 1s2 2s2 2p6 3s2 3p1

 Converged in 54 iterations to an ae energy of -6603.783 eV

   ============================================================                
   | Pseudopotential Report - Date of generation  7-02-2024   |                
   ------------------------------------------------------------                
   | Element: Al Ionic charge:  3.00 Level of theory: PBE     |                
   | Atomic Solver: Koelling-Harmon                           |                
   |                                                          |                
   |               Reference Electronic Structure             |                
   |         Orbital         Occupation         Energy        |                
   |            3s              2.000           -0.285        |                
   |            3p              1.000           -0.100        |                
   |                                                          |                
   |                 Pseudopotential Definition               |                
   |        Beta     l      e      Rc     scheme   norm       |                
   |          1      0   -0.285   2.192     qc      0         |                
   |          2      0    0.250   2.192     qc      0         |                
   |          3      1   -0.100   2.192     qc      0         |                
   |          4      1    0.250   2.192     qc      0         |                
   |          5      2    0.000   2.000     qc      0         |                
   |          6      2    0.250   2.000     qc      0         |                
   |         loc     3    0.000   2.192     pn      0         |                
   |                                                          |                
   | Augmentation charge Rinner = 1.398                       |                
   | Partial core correction Rc = 1.398                       |                
   ------------------------------------------------------------                
   | "3|2.2|2.2|1.4|4|5|5|30:31:32U2U2"                       |                
   ------------------------------------------------------------                
   |      Author: Chris J. Pickard, Cambridge University      |                
   ============================================================                

 Atomic calculation performed for Ti: 1s2 2s2 2p6 3s2 3p6 3d2 4s2

 Converged in 79 iterations to an ae energy of -23226.658 eV

   ============================================================                
   | Pseudopotential Report - Date of generation  7-02-2024   |                
   ------------------------------------------------------------                
   | Element: Ti Ionic charge: 12.00 Level of theory: PBE     |                
   | Atomic Solver: Koelling-Harmon                           |                
   |                                                          |                
   |               Reference Electronic Structure             |                
   |         Orbital         Occupation         Energy        |                
   |            3s              2.000           -2.302        |                
   |            3p              6.000           -1.428        |                
   |            4s              2.000           -0.164        |                
   |            3d              2.000           -0.157        |                
   |                                                          |                
   |                 Pseudopotential Definition               |                
   |        Beta     l      e      Rc     scheme   norm       |                
   |          1      0   -2.302   1.793     qc      0         |                
   |          2      0   -0.164   1.793     qc      0         |                
   |          3      0    0.250   1.793     qc      0         |                
   |          4      1   -1.428   1.793     qc      0         |                
   |          5      1    0.250   1.793     qc      0         |                
   |          6      2   -0.157   1.793     qc      0         |                
   |          7      2    0.250   1.793     qc      0         |                
   |         loc     3    0.000   1.793     pn      0         |                
   |                                                          |                
   | Augmentation charge Rinner = 1.263                       |                
   | Partial core correction Rc = 1.263                       |                
   ------------------------------------------------------------                
   | "3|1.8|9|10|11|30U:40:31:32(qc=5.5)"                     |                
   ------------------------------------------------------------                
   |      Author: Chris J. Pickard, Cambridge University      |                
   ============================================================                

 Atomic calculation performed for V: 1s2 2s2 2p6 3s2 3p6 3d3 4s2

 Converged in 81 iterations to an ae energy of -25823.733 eV

   ============================================================                
   | Pseudopotential Report - Date of generation  7-02-2024   |                
   ------------------------------------------------------------                
   | Element: V Ionic charge: 13.00 Level of theory: PBE      |                
   | Atomic Solver: Koelling-Harmon                           |                
   |                                                          |                
   |               Reference Electronic Structure             |                
   |         Orbital         Occupation         Energy        |                
   |            3s              2.000           -2.581        |                
   |            3p              6.000           -1.618        |                
   |            3d              3.000           -0.190        |                
   |            4s              2.000           -0.173        |                
   |                                                          |                
   |                 Pseudopotential Definition               |                
   |        Beta     l      e      Rc     scheme   norm       |                
   |          1      0   -2.581   1.803     qc      0         |                
   |          2      0   -0.173   1.803     qc      0         |                
   |          3      0    0.250   1.803     qc      0         |                
   |          4      1   -1.618   1.803     qc      0         |                
   |          5      1    0.250   1.803     qc      0         |                
   |          6      2   -0.190   1.803     qc      0         |                
   |          7      2    0.250   1.803     qc      0         |                
   |         loc     3    0.000   1.803     pn      0         |                
   |                                                          |                
   | Augmentation charge Rinner = 0.600                       |                
   | Partial core correction Rc = 0.600                       |                
   ------------------------------------------------------------                
   | "3|1.8|1.8|0.6|12|14|16|30U:40:31:32(qc=7)"              |                
   ------------------------------------------------------------                
   |      Author: Chris J. Pickard, Cambridge University      |                
   ============================================================                

 Pseudo atomic calculation performed for Al 3s2 3p1

 Converged in 15 iterations to a total energy of -107.1308 eV

 Pseudo atomic calculation performed for Ti 3s2 3p6 3d2 4s2

 Converged in 34 iterations to a total energy of -1587.0236 eV

 Pseudo atomic calculation performed for V 3s2 3p6 3d3 4s2

 Converged in 35 iterations to a total energy of -2065.7874 eV
 Calculation parallelised over 336 processes.
 Data is distributed by G-vector(24-way) and k-point(14-way)

 ************************************ Title ************************************
 

 ***************************** General Parameters ******************************
  
 output verbosity                               : normal  (1)
 write checkpoint data to                       : sqs_hcp_sc3x3x3_Ti46Al6V2_frame0_16.check
 type of calculation                            : single point energy
 stress calculation                             : on
 density difference calculation                 : off
 electron localisation func (ELF) calculation   : off
 Hirshfeld analysis                             : off
 polarisation (Berry phase) analysis            : off
 molecular orbital projected DOS                : off
 deltaSCF calculation                           : off
 unlimited duration calculation
 timing information                             : on
 memory usage estimate                          : on
 write extra output files                       : on
 write final potential to formatted file        : off
 write final density to formatted file          : off
 write BibTeX reference list                    : on
 write OTFG pseudopotential files               : on
 write electrostatic potential file             : on
 write bands file                               : on
 checkpoint writing                             : off
  
 output         length unit                     : A
 output           mass unit                     : amu
 output           time unit                     : ps
 output         charge unit                     : e
 output           spin unit                     : hbar/2
 output         energy unit                     : eV
 output          force unit                     : eV/A
 output       velocity unit                     : A/ps
 output       pressure unit                     : GPa
 output     inv_length unit                     : 1/A
 output      frequency unit                     : cm-1
 output force constant unit                     : eV/A**2
 output         volume unit                     : A**3
 output   IR intensity unit                     : (D/A)**2/amu
 output         dipole unit                     : D
 output         efield unit                     : eV/A/e
 output        entropy unit                     : J/mol/K
 output    efield chi2 unit                     : pm/V
  
 wavefunctions paging                           : none
 random number generator seed                   :  162159132
 data distribution                              : k-point only
 optimization strategy                          : maximize speed(+++)

 *********************** Exchange-Correlation Parameters ***********************
  
 using functional                               : Perdew Burke Ernzerhof
 relativistic treatment                         : Koelling-Harmon
 DFT+D: Semi-empirical dispersion correction    : off

 ************************* Pseudopotential Parameters **************************
  
 pseudopotential representation                 : reciprocal space
 <beta|phi> representation                      : reciprocal space
 spin-orbit coupling                            : off

 **************************** Basis Set Parameters *****************************
  
 plane wave basis set cut-off                   :   800.0000   eV
 size of standard grid                          :     2.0000
 size of   fine   gmax                          :    28.9810   1/A
 largest prime factor in FFT                    :          5
 finite basis set correction                    : automatic
 number of sample energies                      :          3
           sample  spacing                      :     5.0000   eV

 **************************** Electronic Parameters ****************************
  
 number of  electrons                           :  596.0    
 net charge of system                           :  0.000    
 treating system as non-spin-polarized
 number of bands                                :        333

 ********************* Electronic Minimization Parameters **********************
  
 Method: Treating system as metallic with density mixing treatment of electrons,
         and number of  SD  steps               :          1
         and number of  CG  steps               :          4
  
 total energy / atom convergence tol.           : 0.1000E-05   eV
 eigen-energy convergence tolerance             : 0.1622E-06   eV
 max force / atom convergence tol.              : ignored
 convergence tolerance window                   :          3   cycles
 max. number of SCF cycles                      :         30
 number of fixed-spin iterations                :         10
 smearing scheme                                : Gaussian
 smearing width                                 : 0.5000E-01   eV
 Fermi energy convergence tolerance             : 0.2721E-13   eV
 periodic dipole correction                     : NONE

 ************************** Density Mixing Parameters **************************
  
 density-mixing scheme                          : Pulay
 max. length of mixing history                  :         20
 charge density mixing amplitude                : 0.8000    
 cut-off energy for mixing                      :  800.0       eV
 charge density mixing g-vector                 :  1.500       1/A

 *********************** Population Analysis Parameters ************************
  
 Population analysis with cutoff                :  3.000       A
 Population analysis output                     : summary and pdos components

 ******************************* Developer Code ********************************
  
 PARALLEL: kpoint=14 : ENDPARALLEL
 no_improve_wvfn

 *******************************************************************************
  

                           -------------------------------
                                      Unit Cell
                           -------------------------------
        Real Lattice(A)                      Reciprocal Lattice(1/A)
     4.3693630    -7.5679570     0.0378490        0.719004740  -0.415128128  -0.002093062
     4.3693630     7.5679570    -0.0377960        0.719004715   0.415128172   0.002102058
    -0.0000860    -0.0694650    13.7478180       -0.000002772   0.002284171   0.457043000

                       Lattice parameters(A)       Cell Angles
                    a =      8.738806          alpha =   90.498703
                    b =      8.738806          beta  =   89.501308
                    c =     13.747993          gamma =  120.000608

                       Current cell volume =           909.179396       A**3
                                   density =             2.711956   AMU/A**3
                                           =             4.503308     g/cm^3

                           -------------------------------
                                     Cell Contents
                           -------------------------------
                         Total number of ions in cell =   54
                      Total number of species in cell =    3
                        Max number of any one species =   46

            xxxxxxxxxxxxxxxxxxxxxxxxxxxxxxxxxxxxxxxxxxxxxxxxxxxxxxxxxxxx
            x  Element    Atom        Fractional coordinates of atoms  x
            x            Number           u          v          w      x
            x----------------------------------------------------------x
            x  Al           1         0.219996   0.444907   0.915446   x 
            x  Al           2         0.446433   0.883893   0.751022   x 
            x  Al           3         0.886441   0.111002   0.249256   x 
            x  Al           4         0.781569   0.221083   0.751621   x 
            x  Al           5         0.885394   0.445419   0.585027   x 
            x  Al           6         0.777651   0.548866   0.750608   x 
            x  Ti           1         0.103279   0.232817   0.080418   x 
            x  Ti           2         0.216155   0.108856   0.245566   x 
            x  Ti           3         0.110011   0.219632   0.413440   x 
            x  Ti           4         0.220396   0.113283   0.584501   x 
            x  Ti           5         0.109255   0.221623   0.755627   x 
            x  Ti           6         0.219503   0.114816   0.920475   x 
            x  Ti           7         0.215066   0.447222   0.246789   x 
            x  Ti           8         0.109295   0.558598   0.418778   x 
            x  Ti           9         0.222706   0.439540   0.582768   x 
            x  Ti          10         0.115625   0.554727   0.747779   x 
            x  Ti          11         0.107393   0.880274   0.081147   x 
            x  Ti          12         0.218892   0.774872   0.249152   x 
            x  Ti          13         0.113514   0.892110   0.417165   x 
            x  Ti          14         0.224863   0.783578   0.586854   x 
            x  Ti          15         0.119497   0.889742   0.754157   x 
            x  Ti          16         0.229912   0.775522   0.918082   x 
            x  Ti          17         0.447801   0.220534   0.082913   x 
            x  Ti          18         0.554973   0.109054   0.251671   x 
            x  Ti          19         0.439409   0.220787   0.414680   x 
            x  Ti          20         0.555972   0.109078   0.584947   x 
            x  Ti          21         0.445984   0.216759   0.751354   x 
            x  Ti          22         0.560802   0.103085   0.915914   x 
            x  Ti          23         0.437336   0.553747   0.080761   x 
            x  Ti          24         0.555177   0.444877   0.247306   x 
            x  Ti          25         0.444371   0.556499   0.413600   x 
            x  Ti          26         0.555187   0.443536   0.581254   x 
            x  Ti          27         0.447221   0.554440   0.750740   x 
            x  Ti          28         0.551306   0.441513   0.916646   x 
            x  Ti          29         0.439201   0.889437   0.083502   x 
            x  Ti          30         0.557427   0.783178   0.248438   x 
            x  Ti          31         0.439909   0.886969   0.420472   x 
            x  Ti          32         0.549436   0.772836   0.582393   x 
            x  Ti          33         0.553858   0.778457   0.918968   x 
            x  Ti          34         0.775398   0.217811   0.083901   x 
            x  Ti          35         0.780941   0.226238   0.419536   x 
            x  Ti          36         0.898446   0.122743   0.582247   x 
            x  Ti          37         0.781084   0.557143   0.079138   x 
            x  Ti          38         0.892695   0.446386   0.249959   x 
            x  Ti          39         0.777701   0.556095   0.418633   x 
            x  Ti          40         0.895009   0.437072   0.915384   x 
            x  Ti          41         0.785430   0.896558   0.081420   x 
            x  Ti          42         0.887957   0.781146   0.250966   x 
            x  Ti          43         0.778287   0.892939   0.418009   x 
            x  Ti          44         0.892531   0.775469   0.587315   x 
            x  Ti          45         0.775386   0.893703   0.751153   x 
            x  Ti          46         0.885543   0.776190   0.913040   x 
            x  V            1         0.116433   0.560537   0.079059   x 
            x  V            2         0.888941   0.112801   0.919001   x 
            xxxxxxxxxxxxxxxxxxxxxxxxxxxxxxxxxxxxxxxxxxxxxxxxxxxxxxxxxxxx


                         No user defined ionic velocities

                           -------------------------------
                                   Details of Species
                           -------------------------------

                               Mass of species in AMU
                                    Al   26.9815400
                                    Ti   47.8670000
                                    V   50.9415000

                          Electric Quadrupole Moment (Barn)
                                    Al    0.1466000 Isotope 27
                                    Ti    0.3020000 Isotope 47
                                    V   -0.0520000 Isotope 51

                          Files used for pseudopotentials:
                                    Al 3|2.2|2.2|1.4|4|5|5|30:31:32U2U2
                                    Ti 3|1.8|9|10|11|30U:40:31:32(qc=5.5)
                                    V 3|1.8|1.8|0.6|12|14|16|30U:40:31:32(qc=7)

                           -------------------------------
                              k-Points For BZ Sampling
                           -------------------------------
                       MP grid size for SCF calculation is  7  7  4
                            with an offset of   0.000  0.000  0.000
                       Number of kpoints used =            98

                           -------------------------------
                               Symmetry and Constraints
                           -------------------------------

                      Maximum deviation from symmetry =  0.00000         ANG

                      Number of symmetry operations   =           1
                      Number of ionic constraints     =           3
                      Point group of crystal =     1: C1, 1, 1
                      Space group of crystal =     1: P1, P 1

             Set iprint > 1 for details on symmetry rotations/translations

                         Centre of mass is constrained
             Set iprint > 1 for details of linear ionic constraints

                         Number of cell constraints= 0
                         Cell constraints are:  1 2 3 4 5 6

                         External pressure/stress (GPa)
                          0.00000   0.00000   0.00000
                                    0.00000   0.00000
                                              0.00000
 
+---------------- MEMORY AND SCRATCH DISK ESTIMATES PER PROCESS --------------+
|                                                     Memory          Disk    |
| Baseline code, static data and system overhead      591.0 MB         0.0 MB |
| BLAS internal memory storage                          0.0 MB         0.0 MB |
| Model and support data                              546.8 MB         0.0 MB |
| Electronic energy minimisation requirements         182.5 MB         0.0 MB |
| Force calculation requirements                        6.8 MB         0.0 MB |
| Stress calculation requirements                       7.3 MB         0.0 MB |
|                                               ----------------------------- |
| Approx. total storage required per process         1320.3 MB         0.0 MB |
|                                                                             |
| Requirements will fluctuate during execution and may exceed these estimates |
+-----------------------------------------------------------------------------+
Calculating finite basis set correction with  3 cut-off energies.
Calculating total energy with cut-off of  790.000 eV.
------------------------------------------------------------------------ <-- SCF
SCF loop      Energy           Fermi           Energy gain       Timer   <-- SCF
                               energy          per atom          (sec)   <-- SCF
------------------------------------------------------------------------ <-- SCF
Initial  -7.02248689E+004  0.00000000E+000                        24.68  <-- SCF
      1  -7.61399860E+004  1.17178679E+001   1.09539206E+002      94.11  <-- SCF
      2  -7.80224211E+004  9.36028463E+000   3.48599090E+001     151.78  <-- SCF
      3  -7.81364686E+004  9.07924449E+000   2.11198984E+000     211.47  <-- SCF
      4  -7.81413502E+004  8.29199021E+000   9.03997625E-002     277.14  <-- SCF
      5  -7.81421151E+004  8.46346627E+000   1.41645515E-002     350.12  <-- SCF
      6  -7.81361390E+004  8.63875467E+000  -1.10668250E-001     416.15  <-- SCF
      7  -7.81346299E+004  8.62228983E+000  -2.79452779E-002     487.78  <-- SCF
      8  -7.81346195E+004  8.57602968E+000  -1.93490744E-004     554.41  <-- SCF
      9  -7.81345068E+004  8.56925869E+000  -2.08730219E-003     621.72  <-- SCF
     10  -7.81345167E+004  8.56986070E+000   1.83968383E-004     691.43  <-- SCF
     11  -7.81344440E+004  8.56921859E+000  -1.34658213E-003     757.00  <-- SCF
     12  -7.81344490E+004  8.56862435E+000   9.22575840E-005     824.67  <-- SCF
     13  -7.81344455E+004  8.56831301E+000  -6.44988870E-005     887.63  <-- SCF
     14  -7.81344457E+004  8.56839806E+000   4.80358818E-006     945.53  <-- SCF
     15  -7.81344455E+004  8.56843380E+000  -5.14840601E-006     997.64  <-- SCF
     16  -7.81344455E+004  8.56846471E+000  -8.40284110E-009    1037.65  <-- SCF
     17  -7.81344455E+004  8.56846921E+000  -1.61266765E-007    1076.87  <-- SCF
------------------------------------------------------------------------ <-- SCF
 
Final energy, E             =  -78134.37425349     eV
Final free energy (E-TS)    =  -78134.44545433     eV
(energies not corrected for finite basis set)
 
NB est. 0K energy (E-0.5TS)      =  -78134.40985391     eV
 
Calculating total energy with cut-off of  795.000 eV.
------------------------------------------------------------------------ <-- SCF
SCF loop      Energy           Fermi           Energy gain       Timer   <-- SCF
                               energy          per atom          (sec)   <-- SCF
------------------------------------------------------------------------ <-- SCF
Initial  -7.81343742E+004  0.00000000E+000                      1087.32  <-- SCF
      1  -7.81344467E+004  8.56852290E+000   1.34164335E-003    1138.99  <-- SCF
      2  -7.81344468E+004  8.56852152E+000   2.00391433E-006    1191.21  <-- SCF
      3  -7.81344605E+004  8.56715015E+000   2.54202701E-004    1255.07  <-- SCF
      4  -7.81344467E+004  8.56890513E+000  -2.55420637E-004    1317.94  <-- SCF
      5  -7.81344464E+004  8.56853421E+000  -6.60652385E-006    1377.69  <-- SCF
      6  -7.81344464E+004  8.56845013E+000   3.40841087E-007    1420.66  <-- SCF
      7  -7.81344464E+004  8.56844997E+000   9.77231010E-008    1459.02  <-- SCF
------------------------------------------------------------------------ <-- SCF
 
Final energy, E             =  -78134.37517646     eV
Final free energy (E-TS)    =  -78134.44638809     eV
(energies not corrected for finite basis set)
 
NB est. 0K energy (E-0.5TS)      =  -78134.41078227     eV
 
Calculating total energy with cut-off of  800.000 eV.
------------------------------------------------------------------------ <-- SCF
SCF loop      Energy           Fermi           Energy gain       Timer   <-- SCF
                               energy          per atom          (sec)   <-- SCF
------------------------------------------------------------------------ <-- SCF
Initial  -7.81343751E+004  0.00000000E+000                      1469.52  <-- SCF
      1  -7.81344487E+004  8.56822975E+000   1.36257948E-003    1522.65  <-- SCF
      2  -7.81344489E+004  8.56822872E+000   2.74534859E-006    1574.96  <-- SCF
      3  -7.81345016E+004  8.57117204E+000   9.75812270E-004    1641.08  <-- SCF
      4  -7.81344504E+004  8.56715069E+000  -9.47523343E-004    1706.94  <-- SCF
      5  -7.81344471E+004  8.56839087E+000  -6.07730561E-005    1765.52  <-- SCF
      6  -7.81344474E+004  8.56848915E+000   5.09416507E-006    1823.12  <-- SCF
      7  -7.81344473E+004  8.56843179E+000  -1.56424402E-006    1870.93  <-- SCF
      8  -7.81344473E+004  8.56847258E+000  -5.46302915E-007    1910.76  <-- SCF
      9  -7.81344473E+004  8.56848458E+000  -1.44946660E-008    1949.34  <-- SCF
------------------------------------------------------------------------ <-- SCF
 
Final energy, E             =  -78134.37608178     eV
Final free energy (E-TS)    =  -78134.44727843     eV
(energies not corrected for finite basis set)
 
NB est. 0K energy (E-0.5TS)      =  -78134.41168010     eV
 
 For future reference: finite basis dEtot/dlog(Ecut) =      -0.144930eV
 Total energy corrected for finite basis set =  -78134.447279 eV

 ************************** Forces **************************
 *                                                          *
 *               Cartesian components (eV/A)                *
 * -------------------------------------------------------- *
 *                         x            y            z      *
 *                                                          *
 * Al              1      0.06146      0.00275      0.07215 *
 * Al              2     -0.01500     -0.04554     -0.07625 *
 * Al              3      0.00877     -0.00995      0.09219 *
 * Al              4     -0.04161      0.02969     -0.06513 *
 * Al              5     -0.05451     -0.04627      0.08060 *
 * Al              6      0.04625      0.11570      0.01602 *
 * Ti              1      0.00139      0.05629     -0.03217 *
 * Ti              2     -0.01669      0.05439     -0.00273 *
 * Ti              3     -0.00961     -0.03565     -0.01785 *
 * Ti              4     -0.01934      0.01026     -0.03337 *
 * Ti              5     -0.00211     -0.04172     -0.12342 *
 * Ti              6      0.07191      0.04158      0.02875 *
 * Ti              7     -0.06474      0.03208      0.04284 *
 * Ti              8     -0.01001     -0.02568     -0.01221 *
 * Ti              9      0.01797     -0.02135      0.04833 *
 * Ti             10     -0.09160      0.03406      0.04591 *
 * Ti             11     -0.01006     -0.05644     -0.03219 *
 * Ti             12     -0.03434     -0.00254      0.02722 *
 * Ti             13     -0.00041      0.02891      0.03077 *
 * Ti             14      0.03300      0.00174      0.03905 *
 * Ti             15     -0.04455      0.08896     -0.01386 *
 * Ti             16     -0.07150      0.08391     -0.01654 *
 * Ti             17      0.00767      0.01381     -0.02236 *
 * Ti             18      0.04817     -0.01383     -0.06629 *
 * Ti             19     -0.00757      0.02335      0.04312 *
 * Ti             20     -0.02370      0.06923     -0.09114 *
 * Ti             21      0.01909     -0.04826      0.00295 *
 * Ti             22     -0.04741      0.16266      0.13525 *
 * Ti             23      0.00085      0.00594     -0.05344 *
 * Ti             24     -0.01964     -0.01081      0.01182 *
 * Ti             25      0.01088      0.01812     -0.00982 *
 * Ti             26      0.03084     -0.04161     -0.05566 *
 * Ti             27      0.08868     -0.01290      0.03025 *
 * Ti             28     -0.02225      0.01476      0.07958 *
 * Ti             29     -0.10472      0.00703      0.00208 *
 * Ti             30      0.06319     -0.01345     -0.00993 *
 * Ti             31     -0.03521     -0.00134     -0.09384 *
 * Ti             32     -0.03470     -0.06072     -0.04416 *
 * Ti             33      0.01177     -0.06994      0.01019 *
 * Ti             34     -0.01536     -0.09279     -0.01815 *
 * Ti             35      0.01585     -0.03928     -0.02447 *
 * Ti             36      0.01128     -0.03478     -0.04523 *
 * Ti             37     -0.01568      0.00090      0.01395 *
 * Ti             38      0.01740     -0.07665     -0.10648 *
 * Ti             39      0.00430     -0.05714      0.10457 *
 * Ti             40      0.03399      0.09913      0.06157 *
 * Ti             41     -0.03044      0.06170     -0.00266 *
 * Ti             42      0.02798      0.02254     -0.02686 *
 * Ti             43      0.01220      0.00220     -0.06252 *
 * Ti             44     -0.05686     -0.02487     -0.04189 *
 * Ti             45     -0.05149     -0.07094     -0.03493 *
 * Ti             46      0.00524     -0.03599      0.11559 *
 * V               1      0.08844      0.04984     -0.06729 *
 * V               2      0.21253     -0.14109      0.16811 *
 *                                                          *
 ************************************************************

 ***************** Stress Tensor *****************
 *                                               *
 *          Cartesian components (GPa)           *
 * --------------------------------------------- *
 *             x             y             z     *
 *                                               *
 *  x     -0.819951     -0.060099     -0.205984  *
 *  y     -0.060099     -0.666971     -0.568550  *
 *  z     -0.205984     -0.568550     -2.058012  *
 *                                               *
 *  Pressure:    1.1816                          *
 *                                               *
 *************************************************

 Pseudo atomic calculation performed for Al 3s2 3p1

 Converged in 15 iterations to a total energy of -107.1308 eV

 Pseudo atomic calculation performed for Ti 3s2 3p6 3d2 4s2

 Converged in 34 iterations to a total energy of -1587.0236 eV

 Pseudo atomic calculation performed for V 3s2 3p6 3d3 4s2

 Converged in 35 iterations to a total energy of -2065.7874 eV
Charge spilling parameter for spin component 1 = 0.09%

            Orbital Populations       
     Ion    Atom   Orbital             Charge
  -------------------------------------------
     Al     1      S                    0.922
     Al     1      Px                   0.682
     Al     1      Py                   0.687
     Al     1      Pz                   0.711
     Al     2      S                    0.940
     Al     2      Px                   0.646
     Al     2      Py                   0.706
     Al     2      Pz                   0.714
     Al     3      S                    0.929
     Al     3      Px                   0.691
     Al     3      Py                   0.686
     Al     3      Pz                   0.716
     Al     4      S                    0.958
     Al     4      Px                   0.659
     Al     4      Py                   0.680
     Al     4      Pz                   0.687
     Al     5      S                    0.954
     Al     5      Px                   0.700
     Al     5      Py                   0.702
     Al     5      Pz                   0.652
     Al     6      S                    0.960
     Al     6      Px                   0.682
     Al     6      Py                   0.656
     Al     6      Pz                   0.695
     Ti     1      S                    2.003
     Ti     1      Px                   2.006
     Ti     1      Py                   2.005
     Ti     1      Pz                   2.007
     Ti     1      S                    0.294
     Ti     1      Dzz                  0.609
     Ti     1      Dzy                  0.465
     Ti     1      Dzx                  0.517
     Ti     1      Dxx-yy               0.572
     Ti     1      Dxy                  0.568
     Ti     1      Px                   0.321
     Ti     1      Py                   0.321
     Ti     1      Pz                   0.282
     Ti     2      S                    2.003
     Ti     2      Px                   2.005
     Ti     2      Py                   2.005
     Ti     2      Pz                   2.005
     Ti     2      S                    0.307
     Ti     2      Dzz                  0.599
     Ti     2      Dzy                  0.476
     Ti     2      Dzx                  0.503
     Ti     2      Dxx-yy               0.573
     Ti     2      Dxy                  0.570
     Ti     2      Px                   0.321
     Ti     2      Py                   0.315
     Ti     2      Pz                   0.310
     Ti     3      S                    2.004
     Ti     3      Px                   2.006
     Ti     3      Py                   2.006
     Ti     3      Pz                   2.006
     Ti     3      S                    0.296
     Ti     3      Dzz                  0.617
     Ti     3      Dzy                  0.492
     Ti     3      Dzx                  0.467
     Ti     3      Dxx-yy               0.574
     Ti     3      Dxy                  0.566
     Ti     3      Px                   0.319
     Ti     3      Py                   0.331
     Ti     3      Pz                   0.296
     Ti     4      S                    2.003
     Ti     4      Px                   2.006
     Ti     4      Py                   2.006
     Ti     4      Pz                   2.006
     Ti     4      S                    0.291
     Ti     4      Dzz                  0.617
     Ti     4      Dzy                  0.488
     Ti     4      Dzx                  0.462
     Ti     4      Dxx-yy               0.576
     Ti     4      Dxy                  0.564
     Ti     4      Px                   0.327
     Ti     4      Py                   0.337
     Ti     4      Pz                   0.333
     Ti     5      S                    2.003
     Ti     5      Px                   2.005
     Ti     5      Py                   2.005
     Ti     5      Pz                   2.006
     Ti     5      S                    0.297
     Ti     5      Dzz                  0.626
     Ti     5      Dzy                  0.500
     Ti     5      Dzx                  0.468
     Ti     5      Dxx-yy               0.588
     Ti     5      Dxy                  0.532
     Ti     5      Px                   0.324
     Ti     5      Py                   0.294
     Ti     5      Pz                   0.314
     Ti     6      S                    2.003
     Ti     6      Px                   2.005
     Ti     6      Py                   2.005
     Ti     6      Pz                   2.006
     Ti     6      S                    0.305
     Ti     6      Dzz                  0.595
     Ti     6      Dzy                  0.505
     Ti     6      Dzx                  0.484
     Ti     6      Dxx-yy               0.568
     Ti     6      Dxy                  0.566
     Ti     6      Px                   0.321
     Ti     6      Py                   0.324
     Ti     6      Pz                   0.316
     Ti     7      S                    2.003
     Ti     7      Px                   2.005
     Ti     7      Py                   2.006
     Ti     7      Pz                   2.005
     Ti     7      S                    0.308
     Ti     7      Dzz                  0.590
     Ti     7      Dzy                  0.511
     Ti     7      Dzx                  0.481
     Ti     7      Dxx-yy               0.531
     Ti     7      Dxy                  0.602
     Ti     7      Px                   0.300
     Ti     7      Py                   0.341
     Ti     7      Pz                   0.325
     Ti     8      S                    2.003
     Ti     8      Px                   2.006
     Ti     8      Py                   2.006
     Ti     8      Pz                   2.006
     Ti     8      S                    0.302
     Ti     8      Dzz                  0.623
     Ti     8      Dzy                  0.465
     Ti     8      Dzx                  0.482
     Ti     8      Dxx-yy               0.572
     Ti     8      Dxy                  0.576
     Ti     8      Px                   0.324
     Ti     8      Py                   0.332
     Ti     8      Pz                   0.285
     Ti     9      S                    2.003
     Ti     9      Px                   2.006
     Ti     9      Py                   2.005
     Ti     9      Pz                   2.005
     Ti     9      S                    0.312
     Ti     9      Dzz                  0.596
     Ti     9      Dzy                  0.459
     Ti     9      Dzx                  0.522
     Ti     9      Dxx-yy               0.552
     Ti     9      Dxy                  0.573
     Ti     9      Px                   0.326
     Ti     9      Py                   0.309
     Ti     9      Pz                   0.326
     Ti    10      S                    2.003
     Ti    10      Px                   2.006
     Ti    10      Py                   2.006
     Ti    10      Pz                   2.006
     Ti    10      S                    0.326
     Ti    10      Dzz                  0.627
     Ti    10      Dzy                  0.496
     Ti    10      Dzx                  0.491
     Ti    10      Dxx-yy               0.541
     Ti    10      Dxy                  0.611
     Ti    10      Px                   0.275
     Ti    10      Py                   0.306
     Ti    10      Pz                   0.303
     Ti    11      S                    2.004
     Ti    11      Px                   2.006
     Ti    11      Py                   2.006
     Ti    11      Pz                   2.006
     Ti    11      S                    0.303
     Ti    11      Dzz                  0.602
     Ti    11      Dzy                  0.504
     Ti    11      Dzx                  0.468
     Ti    11      Dxx-yy               0.574
     Ti    11      Dxy                  0.566
     Ti    11      Px                   0.331
     Ti    11      Py                   0.342
     Ti    11      Pz                   0.315
     Ti    12      S                    2.003
     Ti    12      Px                   2.006
     Ti    12      Py                   2.006
     Ti    12      Pz                   2.006
     Ti    12      S                    0.285
     Ti    12      Dzz                  0.621
     Ti    12      Dzy                  0.463
     Ti    12      Dzx                  0.472
     Ti    12      Dxx-yy               0.577
     Ti    12      Dxy                  0.576
     Ti    12      Px                   0.330
     Ti    12      Py                   0.325
     Ti    12      Pz                   0.340
     Ti    13      S                    2.004
     Ti    13      Px                   2.006
     Ti    13      Py                   2.006
     Ti    13      Pz                   2.006
     Ti    13      S                    0.299
     Ti    13      Dzz                  0.598
     Ti    13      Dzy                  0.485
     Ti    13      Dzx                  0.477
     Ti    13      Dxx-yy               0.571
     Ti    13      Dxy                  0.566
     Ti    13      Px                   0.329
     Ti    13      Py                   0.337
     Ti    13      Pz                   0.311
     Ti    14      S                    2.003
     Ti    14      Px                   2.006
     Ti    14      Py                   2.006
     Ti    14      Pz                   2.007
     Ti    14      S                    0.312
     Ti    14      Dzz                  0.621
     Ti    14      Dzy                  0.495
     Ti    14      Dzx                  0.491
     Ti    14      Dxx-yy               0.539
     Ti    14      Dxy                  0.584
     Ti    14      Px                   0.291
     Ti    14      Py                   0.343
     Ti    14      Pz                   0.299
     Ti    15      S                    2.003
     Ti    15      Px                   2.005
     Ti    15      Py                   2.005
     Ti    15      Pz                   2.006
     Ti    15      S                    0.321
     Ti    15      Dzz                  0.585
     Ti    15      Dzy                  0.484
     Ti    15      Dzx                  0.528
     Ti    15      Dxx-yy               0.546
     Ti    15      Dxy                  0.584
     Ti    15      Px                   0.284
     Ti    15      Py                   0.322
     Ti    15      Pz                   0.328
     Ti    16      S                    2.003
     Ti    16      Px                   2.006
     Ti    16      Py                   2.006
     Ti    16      Pz                   2.007
     Ti    16      S                    0.294
     Ti    16      Dzz                  0.605
     Ti    16      Dzy                  0.496
     Ti    16      Dzx                  0.487
     Ti    16      Dxx-yy               0.588
     Ti    16      Dxy                  0.553
     Ti    16      Px                   0.325
     Ti    16      Py                   0.300
     Ti    16      Pz                   0.298
     Ti    17      S                    2.003
     Ti    17      Px                   2.006
     Ti    17      Py                   2.006
     Ti    17      Pz                   2.006
     Ti    17      S                    0.300
     Ti    17      Dzz                  0.600
     Ti    17      Dzy                  0.507
     Ti    17      Dzx                  0.470
     Ti    17      Dxx-yy               0.579
     Ti    17      Dxy                  0.556
     Ti    17      Px                   0.330
     Ti    17      Py                   0.346
     Ti    17      Pz                   0.317
     Ti    18      S                    2.003
     Ti    18      Px                   2.006
     Ti    18      Py                   2.006
     Ti    18      Pz                   2.006
     Ti    18      S                    0.308
     Ti    18      Dzz                  0.623
     Ti    18      Dzy                  0.497
     Ti    18      Dzx                  0.468
     Ti    18      Dxx-yy               0.600
     Ti    18      Dxy                  0.540
     Ti    18      Px                   0.335
     Ti    18      Py                   0.303
     Ti    18      Pz                   0.314
     Ti    19      S                    2.003
     Ti    19      Px                   2.006
     Ti    19      Py                   2.006
     Ti    19      Pz                   2.006
     Ti    19      S                    0.303
     Ti    19      Dzz                  0.594
     Ti    19      Dzy                  0.481
     Ti    19      Dzx                  0.494
     Ti    19      Dxx-yy               0.562
     Ti    19      Dxy                  0.577
     Ti    19      Px                   0.333
     Ti    19      Py                   0.332
     Ti    19      Pz                   0.322
     Ti    20      S                    2.003
     Ti    20      Px                   2.006
     Ti    20      Py                   2.005
     Ti    20      Pz                   2.006
     Ti    20      S                    0.312
     Ti    20      Dzz                  0.593
     Ti    20      Dzy                  0.502
     Ti    20      Dzx                  0.496
     Ti    20      Dxx-yy               0.542
     Ti    20      Dxy                  0.601
     Ti    20      Px                   0.291
     Ti    20      Py                   0.330
     Ti    20      Pz                   0.276
     Ti    21      S                    2.003
     Ti    21      Px                   2.005
     Ti    21      Py                   2.005
     Ti    21      Pz                   2.005
     Ti    21      S                    0.344
     Ti    21      Dzz                  0.609
     Ti    21      Dzy                  0.482
     Ti    21      Dzx                  0.502
     Ti    21      Dxx-yy               0.544
     Ti    21      Dxy                  0.587
     Ti    21      Px                   0.285
     Ti    21      Py                   0.311
     Ti    21      Pz                   0.334
     Ti    22      S                    2.003
     Ti    22      Px                   2.006
     Ti    22      Py                   2.005
     Ti    22      Pz                   2.006
     Ti    22      S                    0.294
     Ti    22      Dzz                  0.621
     Ti    22      Dzy                  0.473
     Ti    22      Dzx                  0.484
     Ti    22      Dxx-yy               0.570
     Ti    22      Dxy                  0.572
     Ti    22      Px                   0.325
     Ti    22      Py                   0.333
     Ti    22      Pz                   0.277
     Ti    23      S                    2.003
     Ti    23      Px                   2.005
     Ti    23      Py                   2.005
     Ti    23      Pz                   2.006
     Ti    23      S                    0.293
     Ti    23      Dzz                  0.618
     Ti    23      Dzy                  0.484
     Ti    23      Dzx                  0.492
     Ti    23      Dxx-yy               0.559
     Ti    23      Dxy                  0.569
     Ti    23      Px                   0.323
     Ti    23      Py                   0.336
     Ti    23      Pz                   0.293
     Ti    24      S                    2.003
     Ti    24      Px                   2.005
     Ti    24      Py                   2.005
     Ti    24      Pz                   2.005
     Ti    24      S                    0.300
     Ti    24      Dzz                  0.618
     Ti    24      Dzy                  0.475
     Ti    24      Dzx                  0.480
     Ti    24      Dxx-yy               0.558
     Ti    24      Dxy                  0.570
     Ti    24      Px                   0.333
     Ti    24      Py                   0.331
     Ti    24      Pz                   0.325
     Ti    25      S                    2.004
     Ti    25      Px                   2.006
     Ti    25      Py                   2.006
     Ti    25      Pz                   2.006
     Ti    25      S                    0.297
     Ti    25      Dzz                  0.607
     Ti    25      Dzy                  0.488
     Ti    25      Dzx                  0.483
     Ti    25      Dxx-yy               0.568
     Ti    25      Dxy                  0.574
     Ti    25      Px                   0.335
     Ti    25      Py                   0.332
     Ti    25      Pz                   0.326
     Ti    26      S                    2.004
     Ti    26      Px                   2.006
     Ti    26      Py                   2.006
     Ti    26      Pz                   2.006
     Ti    26      S                    0.315
     Ti    26      Dzz                  0.595
     Ti    26      Dzy                  0.530
     Ti    26      Dzx                  0.470
     Ti    26      Dxx-yy               0.598
     Ti    26      Dxy                  0.544
     Ti    26      Px                   0.318
     Ti    26      Py                   0.304
     Ti    26      Pz                   0.307
     Ti    27      S                    2.003
     Ti    27      Px                   2.005
     Ti    27      Py                   2.005
     Ti    27      Pz                   2.006
     Ti    27      S                    0.311
     Ti    27      Dzz                  0.618
     Ti    27      Dzy                  0.494
     Ti    27      Dzx                  0.488
     Ti    27      Dxx-yy               0.590
     Ti    27      Dxy                  0.548
     Ti    27      Px                   0.318
     Ti    27      Py                   0.277
     Ti    27      Pz                   0.312
     Ti    28      S                    2.003
     Ti    28      Px                   2.005
     Ti    28      Py                   2.005
     Ti    28      Pz                   2.006
     Ti    28      S                    0.315
     Ti    28      Dzz                  0.606
     Ti    28      Dzy                  0.487
     Ti    28      Dzx                  0.491
     Ti    28      Dxx-yy               0.585
     Ti    28      Dxy                  0.556
     Ti    28      Px                   0.318
     Ti    28      Py                   0.321
     Ti    28      Pz                   0.301
     Ti    29      S                    2.004
     Ti    29      Px                   2.006
     Ti    29      Py                   2.006
     Ti    29      Pz                   2.007
     Ti    29      S                    0.289
     Ti    29      Dzz                  0.594
     Ti    29      Dzy                  0.485
     Ti    29      Dzx                  0.506
     Ti    29      Dxx-yy               0.563
     Ti    29      Dxy                  0.553
     Ti    29      Px                   0.348
     Ti    29      Py                   0.336
     Ti    29      Pz                   0.298
     Ti    30      S                    2.003
     Ti    30      Px                   2.006
     Ti    30      Py                   2.006
     Ti    30      Pz                   2.006
     Ti    30      S                    0.318
     Ti    30      Dzz                  0.606
     Ti    30      Dzy                  0.487
     Ti    30      Dzx                  0.481
     Ti    30      Dxx-yy               0.547
     Ti    30      Dxy                  0.606
     Ti    30      Px                   0.301
     Ti    30      Py                   0.338
     Ti    30      Pz                   0.317
     Ti    31      S                    2.004
     Ti    31      Px                   2.006
     Ti    31      Py                   2.006
     Ti    31      Pz                   2.006
     Ti    31      S                    0.298
     Ti    31      Dzz                  0.589
     Ti    31      Dzy                  0.487
     Ti    31      Dzx                  0.494
     Ti    31      Dxx-yy               0.560
     Ti    31      Dxy                  0.572
     Ti    31      Px                   0.337
     Ti    31      Py                   0.341
     Ti    31      Pz                   0.318
     Ti    32      S                    2.003
     Ti    32      Px                   2.005
     Ti    32      Py                   2.005
     Ti    32      Pz                   2.006
     Ti    32      S                    0.305
     Ti    32      Dzz                  0.604
     Ti    32      Dzy                  0.492
     Ti    32      Dzx                  0.491
     Ti    32      Dxx-yy               0.568
     Ti    32      Dxy                  0.542
     Ti    32      Px                   0.335
     Ti    32      Py                   0.324
     Ti    32      Pz                   0.300
     Ti    33      S                    2.004
     Ti    33      Px                   2.006
     Ti    33      Py                   2.007
     Ti    33      Pz                   2.006
     Ti    33      S                    0.315
     Ti    33      Dzz                  0.603
     Ti    33      Dzy                  0.493
     Ti    33      Dzx                  0.485
     Ti    33      Dxx-yy               0.556
     Ti    33      Dxy                  0.584
     Ti    33      Px                   0.304
     Ti    33      Py                   0.326
     Ti    33      Pz                   0.299
     Ti    34      S                    2.003
     Ti    34      Px                   2.005
     Ti    34      Py                   2.006
     Ti    34      Pz                   2.006
     Ti    34      S                    0.298
     Ti    34      Dzz                  0.600
     Ti    34      Dzy                  0.507
     Ti    34      Dzx                  0.475
     Ti    34      Dxx-yy               0.570
     Ti    34      Dxy                  0.552
     Ti    34      Px                   0.342
     Ti    34      Py                   0.318
     Ti    34      Pz                   0.301
     Ti    35      S                    2.003
     Ti    35      Px                   2.005
     Ti    35      Py                   2.005
     Ti    35      Pz                   2.006
     Ti    35      S                    0.304
     Ti    35      Dzz                  0.618
     Ti    35      Dzy                  0.490
     Ti    35      Dzx                  0.482
     Ti    35      Dxx-yy               0.574
     Ti    35      Dxy                  0.563
     Ti    35      Px                   0.330
     Ti    35      Py                   0.319
     Ti    35      Pz                   0.280
     Ti    36      S                    2.003
     Ti    36      Px                   2.005
     Ti    36      Py                   2.006
     Ti    36      Pz                   2.006
     Ti    36      S                    0.313
     Ti    36      Dzz                  0.594
     Ti    36      Dzy                  0.482
     Ti    36      Dzx                  0.522
     Ti    36      Dxx-yy               0.559
     Ti    36      Dxy                  0.565
     Ti    36      Px                   0.331
     Ti    36      Py                   0.305
     Ti    36      Pz                   0.315
     Ti    37      S                    2.003
     Ti    37      Px                   2.005
     Ti    37      Py                   2.005
     Ti    37      Pz                   2.005
     Ti    37      S                    0.302
     Ti    37      Dzz                  0.600
     Ti    37      Dzy                  0.478
     Ti    37      Dzx                  0.488
     Ti    37      Dxx-yy               0.560
     Ti    37      Dxy                  0.577
     Ti    37      Px                   0.333
     Ti    37      Py                   0.340
     Ti    37      Pz                   0.328
     Ti    38      S                    2.003
     Ti    38      Px                   2.005
     Ti    38      Py                   2.005
     Ti    38      Pz                   2.005
     Ti    38      S                    0.308
     Ti    38      Dzz                  0.598
     Ti    38      Dzy                  0.492
     Ti    38      Dzx                  0.479
     Ti    38      Dxx-yy               0.603
     Ti    38      Dxy                  0.538
     Ti    38      Px                   0.336
     Ti    38      Py                   0.299
     Ti    38      Pz                   0.322
     Ti    39      S                    2.003
     Ti    39      Px                   2.005
     Ti    39      Py                   2.006
     Ti    39      Pz                   2.006
     Ti    39      S                    0.300
     Ti    39      Dzz                  0.621
     Ti    39      Dzy                  0.470
     Ti    39      Dzx                  0.481
     Ti    39      Dxx-yy               0.583
     Ti    39      Dxy                  0.567
     Ti    39      Px                   0.332
     Ti    39      Py                   0.317
     Ti    39      Pz                   0.302
     Ti    40      S                    2.003
     Ti    40      Px                   2.005
     Ti    40      Py                   2.005
     Ti    40      Pz                   2.006
     Ti    40      S                    0.300
     Ti    40      Dzz                  0.625
     Ti    40      Dzy                  0.473
     Ti    40      Dzx                  0.496
     Ti    40      Dxx-yy               0.598
     Ti    40      Dxy                  0.541
     Ti    40      Px                   0.328
     Ti    40      Py                   0.286
     Ti    40      Pz                   0.292
     Ti    41      S                    2.003
     Ti    41      Px                   2.005
     Ti    41      Py                   2.006
     Ti    41      Pz                   2.006
     Ti    41      S                    0.288
     Ti    41      Dzz                  0.604
     Ti    41      Dzy                  0.484
     Ti    41      Dzx                  0.496
     Ti    41      Dxx-yy               0.565
     Ti    41      Dxy                  0.572
     Ti    41      Px                   0.319
     Ti    41      Py                   0.326
     Ti    41      Pz                   0.307
     Ti    42      S                    2.003
     Ti    42      Px                   2.006
     Ti    42      Py                   2.006
     Ti    42      Pz                   2.006
     Ti    42      S                    0.316
     Ti    42      Dzz                  0.614
     Ti    42      Dzy                  0.462
     Ti    42      Dzx                  0.501
     Ti    42      Dxx-yy               0.586
     Ti    42      Dxy                  0.565
     Ti    42      Px                   0.324
     Ti    42      Py                   0.316
     Ti    42      Pz                   0.319
     Ti    43      S                    2.003
     Ti    43      Px                   2.006
     Ti    43      Py                   2.005
     Ti    43      Pz                   2.006
     Ti    43      S                    0.301
     Ti    43      Dzz                  0.606
     Ti    43      Dzy                  0.483
     Ti    43      Dzx                  0.489
     Ti    43      Dxx-yy               0.570
     Ti    43      Dxy                  0.571
     Ti    43      Px                   0.326
     Ti    43      Py                   0.331
     Ti    43      Pz                   0.301
     Ti    44      S                    2.003
     Ti    44      Px                   2.006
     Ti    44      Py                   2.005
     Ti    44      Pz                   2.005
     Ti    44      S                    0.316
     Ti    44      Dzz                  0.603
     Ti    44      Dzy                  0.503
     Ti    44      Dzx                  0.489
     Ti    44      Dxx-yy               0.596
     Ti    44      Dxy                  0.545
     Ti    44      Px                   0.319
     Ti    44      Py                   0.302
     Ti    44      Pz                   0.317
     Ti    45      S                    2.003
     Ti    45      Px                   2.005
     Ti    45      Py                   2.005
     Ti    45      Pz                   2.005
     Ti    45      S                    0.320
     Ti    45      Dzz                  0.586
     Ti    45      Dzy                  0.507
     Ti    45      Dzx                  0.490
     Ti    45      Dxx-yy               0.630
     Ti    45      Dxy                  0.522
     Ti    45      Px                   0.337
     Ti    45      Py                   0.254
     Ti    45      Pz                   0.343
     Ti    46      S                    2.003
     Ti    46      Px                   2.005
     Ti    46      Py                   2.005
     Ti    46      Pz                   2.006
     Ti    46      S                    0.303
     Ti    46      Dzz                  0.615
     Ti    46      Dzy                  0.486
     Ti    46      Dzx                  0.491
     Ti    46      Dxx-yy               0.554
     Ti    46      Dxy                  0.573
     Ti    46      Px                   0.326
     Ti    46      Py                   0.339
     Ti    46      Pz                   0.306
      V     1      S                    2.001
      V     1      Px                   2.003
      V     1      Py                   2.003
      V     1      Pz                   2.004
      V     1      Dzz                  0.869
      V     1      Dzy                  0.643
      V     1      Dzx                  0.682
      V     1      Dxx-yy               0.760
      V     1      Dxy                  0.773
      V     1      S                    0.364
      V     1      Px                   0.342
      V     1      Py                   0.322
      V     1      Pz                   0.301
      V     2      S                    2.001
      V     2      Px                   2.003
      V     2      Py                   2.003
      V     2      Pz                   2.004
      V     2      Dzz                  0.804
      V     2      Dzy                  0.653
      V     2      Dzx                  0.749
      V     2      Dxx-yy               0.690
      V     2      Dxy                  0.837
      V     2      S                    0.372
      V     2      Px                   0.307
      V     2      Py                   0.333
      V     2      Pz                   0.293
  -------------------------------------------
                           Total:     596.000
  -------------------------------------------

     Atomic Populations (Mulliken)
     -----------------------------
Species          Ion     s       p       d       f      Total   Charge (e)
==========================================================================
  Al              1     0.922   2.081   0.000   0.000   3.002    -0.002
  Al              2     0.940   2.066   0.000   0.000   3.006    -0.006
  Al              3     0.929   2.093   0.000   0.000   3.023    -0.023
  Al              4     0.958   2.026   0.000   0.000   2.984     0.016
  Al              5     0.954   2.054   0.000   0.000   3.008    -0.008
  Al              6     0.960   2.033   0.000   0.000   2.993     0.007
  Ti              1     2.297   6.942   2.731   0.000  11.970     0.030
  Ti              2     2.310   6.962   2.722   0.000  11.994     0.006
  Ti              3     2.300   6.964   2.715   0.000  11.979     0.021
  Ti              4     2.295   7.015   2.708   0.000  12.017    -0.017
  Ti              5     2.299   6.949   2.714   0.000  11.962     0.038
  Ti              6     2.308   6.977   2.718   0.000  12.003    -0.003
  Ti              7     2.311   6.983   2.715   0.000  12.009    -0.009
  Ti              8     2.305   6.959   2.717   0.000  11.982     0.018
  Ti              9     2.315   6.978   2.700   0.000  11.993     0.007
  Ti             10     2.329   6.903   2.766   0.000  11.998     0.002
  Ti             11     2.307   7.006   2.715   0.000  12.027    -0.027
  Ti             12     2.289   7.013   2.709   0.000  12.010    -0.010
  Ti             13     2.302   6.994   2.698   0.000  11.995     0.005
  Ti             14     2.316   6.951   2.730   0.000  11.997     0.003
  Ti             15     2.324   6.951   2.726   0.000  12.001    -0.001
  Ti             16     2.298   6.942   2.730   0.000  11.970     0.030
  Ti             17     2.304   7.010   2.713   0.000  12.027    -0.027
  Ti             18     2.311   6.970   2.728   0.000  12.009    -0.009
  Ti             19     2.307   7.005   2.708   0.000  12.020    -0.020
  Ti             20     2.315   6.914   2.735   0.000  11.964     0.036
  Ti             21     2.346   6.946   2.723   0.000  12.016    -0.016
  Ti             22     2.297   6.952   2.720   0.000  11.969     0.031
  Ti             23     2.296   6.969   2.722   0.000  11.987     0.013
  Ti             24     2.303   7.004   2.700   0.000  12.007    -0.007
  Ti             25     2.300   7.010   2.720   0.000  12.030    -0.030
  Ti             26     2.319   6.946   2.736   0.000  12.001    -0.001
  Ti             27     2.314   6.923   2.738   0.000  11.974     0.026
  Ti             28     2.318   6.956   2.724   0.000  11.998     0.002
  Ti             29     2.293   7.001   2.701   0.000  11.995     0.005
  Ti             30     2.321   6.972   2.726   0.000  12.019    -0.019
  Ti             31     2.301   7.013   2.702   0.000  12.017    -0.017
  Ti             32     2.307   6.974   2.697   0.000  11.979     0.021
  Ti             33     2.318   6.948   2.721   0.000  11.988     0.012
  Ti             34     2.301   6.979   2.704   0.000  11.984     0.016
  Ti             35     2.307   6.947   2.727   0.000  11.981     0.019
  Ti             36     2.316   6.967   2.722   0.000  12.005    -0.005
  Ti             37     2.304   7.015   2.703   0.000  12.022    -0.022
  Ti             38     2.311   6.972   2.710   0.000  11.993     0.007
  Ti             39     2.304   6.968   2.721   0.000  11.993     0.007
  Ti             40     2.302   6.921   2.733   0.000  11.957     0.043
  Ti             41     2.291   6.968   2.722   0.000  11.981     0.019
  Ti             42     2.319   6.977   2.727   0.000  12.023    -0.023
  Ti             43     2.304   6.974   2.720   0.000  11.997     0.003
  Ti             44     2.318   6.954   2.735   0.000  12.007    -0.007
  Ti             45     2.322   6.949   2.735   0.000  12.006    -0.006
  Ti             46     2.306   6.986   2.719   0.000  12.011    -0.011
  V               1     2.365   6.975   3.727   0.000  13.067    -0.067
  V               2     2.373   6.943   3.733   0.000  13.049    -0.049
==========================================================================

                 Bond                   Population      Length (A)
======================================================================
             Ti 16 -- V 1                    0.22        2.75353
             Ti 1  -- V 2                    0.19        2.75687
              Al 1 -- Ti 5                   0.22        2.76506
              Al 5 -- Al 6                   0.30        2.76836
             Ti 41 -- V 2                    0.21        2.77563
              Al 4 -- Ti 40                  0.26        2.77631
             Ti 16 -- Ti 29                  0.14        2.77853
              Al 1 -- V 1                    0.23        2.78194
              Al 1 -- Ti 1                   0.21        2.78602
             Ti 14 -- Ti 15                  0.13        2.78911
             Ti 5  -- V 2                    0.17        2.79049
             Ti 26 -- Ti 39                  0.14        2.79230
             Ti 34 -- V 2                    0.18        2.79308
             Ti 1  -- Ti 7                   0.13        2.79828
             Ti 14 -- Ti 31                  0.16        2.80060
             Ti 9  -- Ti 36                  0.21        2.80159
             Ti 1  -- Ti 34                  0.19        2.80202
              Al 2 -- Ti 22                  0.21        2.80291
              Al 4 -- Ti 22                  0.24        2.80398
             Ti 15 -- Ti 46                  0.15        2.80482
             Ti 20 -- Ti 21                  0.21        2.80569
              Al 1 -- Ti 40                  0.24        2.80640
             Ti 23 -- Ti 33                  0.15        2.80671
             Ti 35 -- Ti 36                  0.16        2.80718
             Ti 22 -- Ti 33                  0.23        2.80769
             Ti 1  -- V 1                    0.25        2.80839
             Ti 40 -- V 2                    0.15        2.80847
              Al 5 -- Ti 35                  0.24        2.80895
             Ti 31 -- Ti 32                  0.13        2.81012
             Ti 1  -- Ti 6                   0.16        2.81053
             Ti 9  -- Ti 10                  0.19        2.81079
             Ti 20 -- Ti 31                  0.13        2.81140
             Ti 18 -- Ti 19                  0.17        2.81143
              Al 1 -- Ti 23                  0.23        2.81218
              Al 6 -- Ti 46                  0.25        2.81220
             Ti 5  -- Ti 6                   0.11        2.81242
             Ti 11 -- Ti 16                  0.12        2.81294
             Ti 3  -- Ti 36                  0.13        2.81337
             Ti 7  -- Ti 38                  0.17        2.81345
             Ti 40 -- V 1                    0.21        2.81379
              Al 3 -- Ti 41                  0.23        2.81444
              Al 2 -- Ti 16                  0.23        2.81466
              Al 2 -- Ti 32                  0.23        2.81510
             Ti 12 -- Ti 29                  0.12        2.81621
             Ti 10 -- Ti 14                  0.19        2.81720
             Ti 16 -- Ti 33                  0.15        2.81830
             Ti 23 -- Ti 28                  0.16        2.81847
             Ti 2  -- Ti 3                   0.15        2.81884
             Ti 17 -- Ti 24                  0.14        2.81994
             Ti 29 -- Ti 33                  0.12        2.82052
              Al 2 -- Ti 14                  0.20        2.82059
              Al 3 -- Ti 34                  0.21        2.82167
             Ti 7  -- V 1                    0.17        2.82291
             Ti 22 -- Ti 29                  0.15        2.82341
             Ti 27 -- Ti 28                  0.15        2.82427
             Ti 24 -- Ti 25                  0.14        2.82543
             Ti 22 -- V 2                    0.27        2.82673
              Al 3 -- Ti 3                   0.21        2.82807
             Ti 45 -- Ti 46                  0.13        2.82848
             Ti 7  -- Ti 23                  0.13        2.82861
              Al 2 -- Ti 33                  0.24        2.82862
             Ti 37 -- Ti 46                  0.17        2.82919
              Al 4 -- Ti 36                  0.26        2.82938
             Ti 42 -- Ti 43                  0.15        2.82945
             Ti 22 -- Ti 34                  0.13        2.83030
              Al 1 -- Ti 10                  0.23        2.83139
              Al 6 -- Ti 44                  0.26        2.83181
             Ti 6  -- Ti 17                  0.19        2.83185
             Ti 21 -- Ti 28                  0.17        2.83190
              Al 2 -- Ti 45                  0.23        2.83278
             Ti 25 -- Ti 32                  0.15        2.83320
              Al 4 -- Ti 45                  0.25        2.83423
             Ti 11 -- V 1                    0.27        2.83434
             Ti 2  -- Ti 17                  0.15        2.83447
              Al 4 -- V 2                    0.21        2.83451
             Ti 20 -- Ti 35                  0.16        2.83452
             Ti 23 -- V 1                    0.21        2.83475
             Ti 45 -- V 2                    0.20        2.83522
              Al 5 -- Ti 39                  0.22        2.83556
              Al 1 -- Ti 27                  0.23        2.83642
             Ti 15 -- Ti 16                  0.15        2.83661
             Ti 19 -- Ti 26                  0.16        2.83732
             Ti 28 -- Ti 37                  0.15        2.83783
             Ti 11 -- Ti 37                  0.25        2.83788
             Ti 4  -- Ti 13                  0.14        2.83817
              Al 5 -- Ti 8                   0.21        2.83845
              Al 3 -- Ti 1                   0.22        2.83919
             Ti 12 -- V 1                    0.17        2.83925
             Ti 2  -- Ti 11                  0.17        2.83959
             Ti 18 -- Ti 34                  0.17        2.83967
             Ti 10 -- Ti 40                  0.16        2.83992
             Ti 17 -- Ti 28                  0.16        2.84015
             Ti 32 -- Ti 43                  0.16        2.84114
             Ti 6  -- Ti 11                  0.15        2.84133
             Ti 41 -- Ti 46                  0.17        2.84133
             Ti 4  -- Ti 9                   0.23        2.84136
             Ti 18 -- Ti 29                  0.14        2.84146
              Al 5 -- Ti 10                  0.26        2.84361
             Ti 36 -- Ti 43                  0.15        2.84384
             Ti 26 -- Ti 27                  0.17        2.84528
             Ti 33 -- Ti 45                  0.15        2.84566
             Ti 6  -- Ti 15                  0.15        2.84573
             Ti 12 -- Ti 13                  0.13        2.84575
             Ti 33 -- Ti 41                  0.13        2.84576
             Ti 39 -- Ti 44                  0.14        2.84594
             Ti 7  -- Ti 12                  0.20        2.84660
              Al 1 -- Ti 16                  0.24        2.84676
              Al 6 -- Ti 28                  0.22        2.84714
             Ti 11 -- Ti 12                  0.13        2.84717
             Ti 29 -- Ti 30                  0.14        2.84749
             Ti 8  -- Ti 38                  0.15        2.84812
             Ti 29 -- V 1                    0.22        2.84840
             Ti 37 -- Ti 40                  0.14        2.85043
             Ti 27 -- Ti 32                  0.16        2.85185
             Ti 34 -- Ti 41                  0.17        2.85212
             Ti 25 -- Ti 30                  0.12        2.85272
              Al 5 -- Ti 44                  0.27        2.85347
              Al 3 -- Ti 43                  0.21        2.85391
             Ti 3  -- Ti 9                   0.14        2.85510
             Ti 15 -- Ti 21                  0.29        2.85566
             Ti 8  -- Ti 12                  0.14        2.85575
             Ti 4  -- Ti 36                  0.21        2.85613
              Al 2 -- Ti 20                  0.24        2.85625
             Ti 4  -- Ti 19                  0.14        2.85636
             Ti 17 -- Ti 29                  0.23        2.85664
             Ti 34 -- Ti 40                  0.13        2.85721
             Ti 44 -- Ti 45                  0.20        2.85764
             Ti 34 -- Ti 38                  0.13        2.85768
             Ti 18 -- Ti 30                  0.21        2.85851
             Ti 11 -- Ti 42                  0.13        2.85909
             Ti 13 -- Ti 42                  0.13        2.85915
              Al 4 -- Al 5                   0.23        2.85926
             Ti 13 -- Ti 19                  0.25        2.86035
             Ti 12 -- Ti 38                  0.22        2.86062
             Ti 27 -- Ti 33                  0.16        2.86080
             Ti 11 -- Ti 29                  0.22        2.86087
             Ti 21 -- Ti 22                  0.20        2.86134
             Ti 1  -- Ti 41                  0.20        2.86147
             Ti 9  -- Ti 25                  0.13        2.86164
             Ti 38 -- Ti 39                  0.13        2.86193
              Al 4 -- Ti 5                   0.25        2.86224
              Al 3 -- Ti 35                  0.21        2.86256
             Ti 17 -- Ti 18                  0.14        2.86332
             Ti 1  -- Ti 23                  0.21        2.86361
             Ti 8  -- Ti 14                  0.14        2.86367
             Ti 11 -- Ti 46                  0.14        2.86447
              Al 4 -- Ti 20                  0.26        2.86448
             Ti 30 -- Ti 41                  0.16        2.86527
             Ti 19 -- Ti 24                  0.13        2.86530
             Ti 7  -- Ti 8                   0.15        2.86602
             Ti 4  -- Ti 5                   0.14        2.86628
              Al 6 -- Ti 40                  0.24        2.86686
             Ti 2  -- Ti 42                  0.20        2.86686
             Ti 4  -- Ti 21                  0.14        2.86808
             Ti 24 -- Ti 37                  0.15        2.86849
             Ti 17 -- Ti 22                  0.16        2.86928
             Ti 14 -- Ti 44                  0.21        2.86936
             Ti 14 -- Ti 20                  0.26        2.86939
             Ti 41 -- Ti 42                  0.15        2.86951
             Ti 13 -- Ti 44                  0.14        2.86960
              Al 3 -- Ti 30                  0.26        2.87000
             Ti 10 -- Ti 16                  0.14        2.87005
             Ti 18 -- Ti 31                  0.15        2.87218
             Ti 35 -- Ti 38                  0.15        2.87222
             Ti 15 -- Ti 44                  0.15        2.87246
             Ti 39 -- Ti 42                  0.13        2.87313
             Ti 3  -- Ti 19                  0.22        2.87371
             Ti 8  -- Ti 9                   0.12        2.87377
             Ti 9  -- Ti 27                  0.16        2.87382
             Ti 25 -- Ti 26                  0.12        2.87390
             Ti 3  -- Ti 7                   0.15        2.87479
             Ti 17 -- Ti 34                  0.25        2.87493
             Ti 23 -- Ti 24                  0.16        2.87522
             Ti 30 -- Ti 43                  0.14        2.87541
             Ti 13 -- Ti 31                  0.23        2.87579
             Ti 5  -- Ti 36                  0.13        2.87590
             Ti 16 -- Ti 22                  0.16        2.87728
             Ti 3  -- Ti 43                  0.24        2.87779
             Ti 6  -- Ti 28                  0.21        2.87796
              Al 5 -- Ti 26                  0.25        2.87834
              Al 5 -- Ti 36                  0.25        2.87844
             Ti 3  -- Ti 13                  0.25        2.87848
             Ti 13 -- Ti 14                  0.16        2.87918
             Ti 18 -- Ti 35                  0.16        2.87924
             Ti 8  -- Ti 31                  0.23        2.87949
             Ti 23 -- Ti 30                  0.15        2.87971
             Ti 6  -- V 2                    0.23        2.88020
             Ti 3  -- Ti 4                   0.14        2.88080
              Al 6 -- Ti 26                  0.22        2.88089
             Ti 2  -- Ti 19                  0.14        2.88090
             Ti 2  -- Ti 13                  0.13        2.88092
              Al 4 -- Al 6                   0.22        2.88186
              Al 2 -- Ti 27                  0.25        2.88244
             Ti 6  -- Ti 21                  0.15        2.88262
              Al 2 -- Ti 15                  0.23        2.88287
             Ti 7  -- Ti 25                  0.14        2.88356
              Al 1 -- Ti 6                   0.23        2.88388
              Al 2 -- Ti 10                  0.26        2.88404
             Ti 9  -- Ti 32                  0.25        2.88433
             Ti 14 -- Ti 32                  0.20        2.88457
             Ti 30 -- Ti 31                  0.12        2.88496
             Ti 5  -- Ti 10                  0.20        2.88645
             Ti 8  -- Ti 39                  0.24        2.88688
             Ti 8  -- Ti 35                  0.24        2.88708
             Ti 11 -- Ti 41                  0.26        2.88733
              Al 3 -- Ti 18                  0.25        2.88806
             Ti 9  -- Ti 26                  0.29        2.88808
             Ti 38 -- V 1                    0.16        2.88940
             Ti 32 -- Ti 45                  0.15        2.88943
              Al 3 -- Ti 42                  0.24        2.88950
             Ti 4  -- Ti 15                  0.12        2.89047
              Al 3 -- Ti 2                   0.26        2.89073
             Ti 5  -- Ti 45                  0.20        2.89261
             Ti 12 -- Ti 31                  0.13        2.89559
             Ti 8  -- Ti 13                  0.27        2.89651
             Ti 35 -- Ti 39                  0.21        2.89695
             Ti 30 -- Ti 42                  0.26        2.89787
              Al 1 -- V 2                    0.24        2.89802
             Ti 5  -- Ti 9                   0.10        2.89943
             Ti 10 -- Ti 27                  0.18        2.89965
              Al 6 -- Ti 21                  0.28        2.90029
             Ti 37 -- Ti 42                  0.12        2.90073
             Ti 35 -- Ti 43                  0.23        2.90100
             Ti 4  -- Ti 14                  0.20        2.90141
             Ti 24 -- Ti 39                  0.12        2.90239
             Ti 37 -- Ti 38                  0.12        2.90289
             Ti 26 -- Ti 32                  0.26        2.90305
              Al 3 -- Ti 38                  0.25        2.90385
             Ti 29 -- Ti 34                  0.21        2.90436
             Ti 36 -- Ti 45                  0.21        2.90514
             Ti 3  -- Ti 35                  0.22        2.90545
              Al 3 -- Ti 7                   0.24        2.90572
             Ti 4  -- Ti 26                  0.24        2.90636
             Ti 1  -- Ti 2                   0.17        2.90720
             Ti 21 -- Ti 26                  0.14        2.90816
             Ti 25 -- Ti 31                  0.23        2.90831
             Ti 33 -- Ti 46                  0.28        2.90892
              Al 5 -- Ti 20                  0.26        2.90943
             Ti 4  -- Ti 44                  0.24        2.90984
             Ti 20 -- Ti 32                  0.26        2.91012
              Al 1 -- Ti 28                  0.22        2.91039
              Al 2 -- Ti 21                  0.23        2.91078
             Ti 10 -- Ti 15                  0.24        2.91142
              Al 6 -- Ti 27                  0.26        2.91221
             Ti 19 -- Ti 25                  0.24        2.91245
              Al 4 -- Ti 21                  0.26        2.91394
             Ti 37 -- V 1                    0.27        2.91582
             Ti 25 -- Ti 39                  0.23        2.91610
              Al 1 -- Ti 33                  0.24        2.91657
             Ti 27 -- Ti 45                  0.16        2.91745
              Al 4 -- Ti 10                  0.27        2.91790
             Ti 22 -- Ti 40                  0.20        2.91959
             Ti 12 -- Ti 42                  0.22        2.91966
             Ti 19 -- Ti 31                  0.24        2.92114
             Ti 12 -- Ti 30                  0.23        2.92271
             Ti 28 -- Ti 46                  0.25        2.92315
             Ti 19 -- Ti 20                  0.14        2.92331
             Ti 24 -- Ti 42                  0.27        2.92387
             Ti 33 -- V 2                    0.31        2.92498
             Ti 23 -- Ti 29                  0.23        2.92533
             Ti 26 -- Ti 44                  0.25        2.92580
             Ti 20 -- Ti 26                  0.23        2.92708
             Ti 46 -- V 2                    0.23        2.92728
             Ti 17 -- Ti 37                  0.26        2.92757
              Al 6 -- Ti 10                  0.26        2.92814
             Ti 43 -- Ti 44                  0.14        2.92835
             Ti 12 -- Ti 18                  0.18        2.92886
             Ti 25 -- Ti 43                  0.24        2.92971
             Ti 31 -- Ti 43                  0.24        2.93119
             Ti 2  -- Ti 12                  0.21        2.93150
             Ti 5  -- Ti 27                  0.20        2.93191
             Ti 3  -- Ti 25                  0.23        2.93290
             Ti 13 -- Ti 43                  0.27        2.93304
             Ti 28 -- Ti 33                  0.25        2.93330
             Ti 20 -- Ti 36                  0.23        2.93485
             Ti 18 -- Ti 24                  0.24        2.93494
             Ti 13 -- Ti 39                  0.26        2.93553
             Ti 8  -- Ti 25                  0.24        2.93762
              Al 2 -- Al 4                   0.18        2.93769
             Ti 6  -- Ti 46                  0.22        2.94075
             Ti 39 -- Ti 43                  0.24        2.94114
             Ti 34 -- Ti 37                  0.25        2.94212
             Ti 16 -- Ti 40                  0.16        2.94248
             Ti 24 -- Ti 38                  0.23        2.94348
             Ti 19 -- Ti 39                  0.25        2.94379
             Ti 21 -- Ti 27                  0.26        2.94562
             Ti 5  -- Ti 15                  0.22        2.94591
             Ti 38 -- Ti 42                  0.29        2.94623
             Ti 24 -- Ti 30                  0.28        2.94647
             Ti 37 -- Ti 41                  0.21        2.94717
             Ti 18 -- Ti 38                  0.22        2.94965
             Ti 2  -- Ti 24                  0.25        2.94969
             Ti 4  -- Ti 20                  0.20        2.95114
             Ti 17 -- Ti 23                  0.24        2.95908
              Al 5 -- Ti 14                  0.24        2.96093
             Ti 2  -- Ti 7                   0.23        2.96159
             Ti 2  -- Ti 18                  0.25        2.96192
             Ti 19 -- Ti 35                  0.27        2.96238
             Ti 5  -- Ti 21                  0.26        2.96416
             Ti 7  -- Ti 30                  0.29        2.96430
             Ti 3  -- Ti 8                   0.26        2.96556
             Ti 31 -- Ti 35                  0.23        2.97254
              Al 5 -- Ti 9                   0.24        2.97362
             Ti 11 -- Ti 17                  0.26        2.97419
             Ti 7  -- Ti 24                  0.22        2.98253
              Al 6 -- Ti 15                  0.23        2.98347
             Ti 32 -- Ti 44                  0.29        2.98815
             Ti 34 -- V 1                    0.26        2.98837
             Ti 23 -- Ti 37                  0.23        2.98911
             Ti 29 -- Ti 41                  0.22        2.99489
             Ti 9  -- Ti 14                  0.23        2.99714
             Ti 22 -- Ti 28                  0.24        2.99974
======================================================================

 
 A BibTeX formatted list of references used in this run has been written to 
 sqs_hcp_sc3x3x3_Ti46Al6V2_frame0_16.bib
 
Initialisation time =     19.44 s
Calculation time    =   2050.42 s
Finalisation time   =      0.35 s
Total time          =   2070.21 s
Peak Memory Use     = 1888540 kB
 
Overall parallel efficiency rating: Mediocre (56%)
 
Data was distributed by:-
G-vector (24-way); efficiency rating: Mediocre (56%)
k-point (14-way); efficiency rating: Excellent (97%)
