 +-------------------------------------------------+
 |                                                 |
 |      CCC   AA    SSS  TTTTT  EEEEE  PPPP        |
 |     C     A  A  S       T    E      P   P       |
 |     C     AAAA   SS     T    EEE    PPPP        |
 |     C     A  A     S    T    E      P           |
 |      CCC  A  A  SSS     T    EEEEE  P           |
 |                                                 |
 +-------------------------------------------------+
 |                                                 |
 | Welcome to Academic Release CASTEP version 24.1 |
 | Ab Initio Total Energy Program                  |
 |                                                 |
 | Authors:                                        |
 | M. Segall, M. Probert, C. Pickard, P. Hasnip,   |
 | S. Clark, K. Refson, J. R. Yates,               |
 | A. Bartok-Partay, M. Payne                      |
 |                                                 |
 | Contributors:                                   |
 | P. Lindan, P. Haynes, J. White, V. Milman,      |
 | N. Govind, M. Gibson, P. Tulip, V. Cocula,      |
 | B. Montanari, D. Quigley, M. Glover,            |
 | L. Bernasconi, A. Perlov, M. Plummer,           |
 | E. McNellis, J. Meyer, J. Gale, D. Jochym       |
 | J. Aarons, B. Walker, R. Gillen, D. Jones       |
 | T. Green, I. J. Bush, C. J. Armstrong,          |
 | E. J. Higgins, E. L. Brown, M. S. McFly,        |
 | J. Wilkins, B-C. Shih, P. J. P. Byrne,          |
 | R. J. Maurer, J. C. Womack, J. Dziedzic,        |
 | L. LeBlanc, T. K. Stenczel, J. Kermode,         |
 | S. Sturniolo, B. Shi, B. Durham, M. Evans,      |
 | M. J. Smith, A. Tamerus, Z. Hawkhead,           |
 | V. Ravindran, T. Hollins, S. A. Joyce,          |
 | R. T. Strong, A. M. Reilly                      |
 |                                                 |
 | Copyright (c) 2000 - 2023                       |
 |                                                 |
 |     Distributed under license from Cambridge    |
 |     Enterprise for academic use only.           |
 |                                                 |
 | Please cite                                     |
 |                                                 |
 |     "First principles methods using CASTEP"     |
 |                                                 |
 |         Zeitschrift fuer Kristallographie       |
 |           220(5-6) pp. 567-570 (2005)           |
 |                                                 |
 | S. J. Clark, M. D. Segall, C. J. Pickard,       |
 | P. J. Hasnip, M. J. Probert, K. Refson,         |
 | M. C. Payne                                     |
 |                                                 |
 |       in all publications arising from          |
 |              your use of CASTEP                 |
 |                                                 |
 +-------------------------------------------------+
 |                                                 |
 |              http://www.castep.org              |
 |                                                 |
 +-------------------------------------------------+



 Compiled for linux_x86_64_gfortran10 on Tue, 02 May 2023 15:31:46 +0100
 from code version db08e394c+  default  Mon May 1 16:40:39 2023 +0100
 Compiler: GNU Fortran 10.2.0; Optimisation: fast
 Comms   : Open MPI v4.0.5
 MATHLIBS: openblas (LAPACK version 3.9.0)
 FFT Lib : fftw3 version fftw-3.3.8-sse2-avx-avx2-avx2_128
 Fundamental constants values: CODATA 2018

 Run started: Wed, 07 Feb 2024 16:20:55 +0000

 Atomic calculation performed for Al: 1s2 2s2 2p6 3s2 3p1

 Converged in 54 iterations to an ae energy of -6603.783 eV

   ============================================================                
   | Pseudopotential Report - Date of generation  7-02-2024   |                
   ------------------------------------------------------------                
   | Element: Al Ionic charge:  3.00 Level of theory: PBE     |                
   | Atomic Solver: Koelling-Harmon                           |                
   |                                                          |                
   |               Reference Electronic Structure             |                
   |         Orbital         Occupation         Energy        |                
   |            3s              2.000           -0.285        |                
   |            3p              1.000           -0.100        |                
   |                                                          |                
   |                 Pseudopotential Definition               |                
   |        Beta     l      e      Rc     scheme   norm       |                
   |          1      0   -0.285   2.192     qc      0         |                
   |          2      0    0.250   2.192     qc      0         |                
   |          3      1   -0.100   2.192     qc      0         |                
   |          4      1    0.250   2.192     qc      0         |                
   |          5      2    0.000   2.000     qc      0         |                
   |          6      2    0.250   2.000     qc      0         |                
   |         loc     3    0.000   2.192     pn      0         |                
   |                                                          |                
   | Augmentation charge Rinner = 1.398                       |                
   | Partial core correction Rc = 1.398                       |                
   ------------------------------------------------------------                
   | "3|2.2|2.2|1.4|4|5|5|30:31:32U2U2"                       |                
   ------------------------------------------------------------                
   |      Author: Chris J. Pickard, Cambridge University      |                
   ============================================================                

 Atomic calculation performed for Ti: 1s2 2s2 2p6 3s2 3p6 3d2 4s2

 Converged in 79 iterations to an ae energy of -23226.658 eV

   ============================================================                
   | Pseudopotential Report - Date of generation  7-02-2024   |                
   ------------------------------------------------------------                
   | Element: Ti Ionic charge: 12.00 Level of theory: PBE     |                
   | Atomic Solver: Koelling-Harmon                           |                
   |                                                          |                
   |               Reference Electronic Structure             |                
   |         Orbital         Occupation         Energy        |                
   |            3s              2.000           -2.302        |                
   |            3p              6.000           -1.428        |                
   |            4s              2.000           -0.164        |                
   |            3d              2.000           -0.157        |                
   |                                                          |                
   |                 Pseudopotential Definition               |                
   |        Beta     l      e      Rc     scheme   norm       |                
   |          1      0   -2.302   1.793     qc      0         |                
   |          2      0   -0.164   1.793     qc      0         |                
   |          3      0    0.250   1.793     qc      0         |                
   |          4      1   -1.428   1.793     qc      0         |                
   |          5      1    0.250   1.793     qc      0         |                
   |          6      2   -0.157   1.793     qc      0         |                
   |          7      2    0.250   1.793     qc      0         |                
   |         loc     3    0.000   1.793     pn      0         |                
   |                                                          |                
   | Augmentation charge Rinner = 1.263                       |                
   | Partial core correction Rc = 1.263                       |                
   ------------------------------------------------------------                
   | "3|1.8|9|10|11|30U:40:31:32(qc=5.5)"                     |                
   ------------------------------------------------------------                
   |      Author: Chris J. Pickard, Cambridge University      |                
   ============================================================                

 Atomic calculation performed for V: 1s2 2s2 2p6 3s2 3p6 3d3 4s2

 Converged in 81 iterations to an ae energy of -25823.733 eV

   ============================================================                
   | Pseudopotential Report - Date of generation  7-02-2024   |                
   ------------------------------------------------------------                
   | Element: V Ionic charge: 13.00 Level of theory: PBE      |                
   | Atomic Solver: Koelling-Harmon                           |                
   |                                                          |                
   |               Reference Electronic Structure             |                
   |         Orbital         Occupation         Energy        |                
   |            3s              2.000           -2.581        |                
   |            3p              6.000           -1.618        |                
   |            3d              3.000           -0.190        |                
   |            4s              2.000           -0.173        |                
   |                                                          |                
   |                 Pseudopotential Definition               |                
   |        Beta     l      e      Rc     scheme   norm       |                
   |          1      0   -2.581   1.803     qc      0         |                
   |          2      0   -0.173   1.803     qc      0         |                
   |          3      0    0.250   1.803     qc      0         |                
   |          4      1   -1.618   1.803     qc      0         |                
   |          5      1    0.250   1.803     qc      0         |                
   |          6      2   -0.190   1.803     qc      0         |                
   |          7      2    0.250   1.803     qc      0         |                
   |         loc     3    0.000   1.803     pn      0         |                
   |                                                          |                
   | Augmentation charge Rinner = 0.600                       |                
   | Partial core correction Rc = 0.600                       |                
   ------------------------------------------------------------                
   | "3|1.8|1.8|0.6|12|14|16|30U:40:31:32(qc=7)"              |                
   ------------------------------------------------------------                
   |      Author: Chris J. Pickard, Cambridge University      |                
   ============================================================                

 Pseudo atomic calculation performed for Al 3s2 3p1

 Converged in 15 iterations to a total energy of -107.1308 eV

 Pseudo atomic calculation performed for Ti 3s2 3p6 3d2 4s2

 Converged in 34 iterations to a total energy of -1587.0236 eV

 Pseudo atomic calculation performed for V 3s2 3p6 3d3 4s2

 Converged in 35 iterations to a total energy of -2065.7874 eV
 Calculation parallelised over 336 processes.
 Data is distributed by G-vector(24-way) and k-point(14-way)

 ************************************ Title ************************************
 

 ***************************** General Parameters ******************************
  
 output verbosity                               : normal  (1)
 write checkpoint data to                       : sqs_hcp_sc3x3x3_Ti46Al6V2_frame0_15.check
 type of calculation                            : single point energy
 stress calculation                             : on
 density difference calculation                 : off
 electron localisation func (ELF) calculation   : off
 Hirshfeld analysis                             : off
 polarisation (Berry phase) analysis            : off
 molecular orbital projected DOS                : off
 deltaSCF calculation                           : off
 unlimited duration calculation
 timing information                             : on
 memory usage estimate                          : on
 write extra output files                       : on
 write final potential to formatted file        : off
 write final density to formatted file          : off
 write BibTeX reference list                    : on
 write OTFG pseudopotential files               : on
 write electrostatic potential file             : on
 write bands file                               : on
 checkpoint writing                             : off
  
 output         length unit                     : A
 output           mass unit                     : amu
 output           time unit                     : ps
 output         charge unit                     : e
 output           spin unit                     : hbar/2
 output         energy unit                     : eV
 output          force unit                     : eV/A
 output       velocity unit                     : A/ps
 output       pressure unit                     : GPa
 output     inv_length unit                     : 1/A
 output      frequency unit                     : cm-1
 output force constant unit                     : eV/A**2
 output         volume unit                     : A**3
 output   IR intensity unit                     : (D/A)**2/amu
 output         dipole unit                     : D
 output         efield unit                     : eV/A/e
 output        entropy unit                     : J/mol/K
 output    efield chi2 unit                     : pm/V
  
 wavefunctions paging                           : none
 random number generator seed                   :  162055150
 data distribution                              : k-point only
 optimization strategy                          : maximize speed(+++)

 *********************** Exchange-Correlation Parameters ***********************
  
 using functional                               : Perdew Burke Ernzerhof
 relativistic treatment                         : Koelling-Harmon
 DFT+D: Semi-empirical dispersion correction    : off

 ************************* Pseudopotential Parameters **************************
  
 pseudopotential representation                 : reciprocal space
 <beta|phi> representation                      : reciprocal space
 spin-orbit coupling                            : off

 **************************** Basis Set Parameters *****************************
  
 plane wave basis set cut-off                   :   800.0000   eV
 size of standard grid                          :     2.0000
 size of   fine   gmax                          :    28.9810   1/A
 largest prime factor in FFT                    :          5
 finite basis set correction                    : automatic
 number of sample energies                      :          3
           sample  spacing                      :     5.0000   eV

 **************************** Electronic Parameters ****************************
  
 number of  electrons                           :  596.0    
 net charge of system                           :  0.000    
 treating system as non-spin-polarized
 number of bands                                :        333

 ********************* Electronic Minimization Parameters **********************
  
 Method: Treating system as metallic with density mixing treatment of electrons,
         and number of  SD  steps               :          1
         and number of  CG  steps               :          4
  
 total energy / atom convergence tol.           : 0.1000E-05   eV
 eigen-energy convergence tolerance             : 0.1622E-06   eV
 max force / atom convergence tol.              : ignored
 convergence tolerance window                   :          3   cycles
 max. number of SCF cycles                      :         30
 number of fixed-spin iterations                :         10
 smearing scheme                                : Gaussian
 smearing width                                 : 0.5000E-01   eV
 Fermi energy convergence tolerance             : 0.2721E-13   eV
 periodic dipole correction                     : NONE

 ************************** Density Mixing Parameters **************************
  
 density-mixing scheme                          : Pulay
 max. length of mixing history                  :         20
 charge density mixing amplitude                : 0.8000    
 cut-off energy for mixing                      :  800.0       eV
 charge density mixing g-vector                 :  1.500       1/A

 *********************** Population Analysis Parameters ************************
  
 Population analysis with cutoff                :  3.000       A
 Population analysis output                     : summary and pdos components

 ******************************* Developer Code ********************************
  
 PARALLEL: kpoint=14 : ENDPARALLEL
 no_improve_wvfn

 *******************************************************************************
  

                           -------------------------------
                                      Unit Cell
                           -------------------------------
        Real Lattice(A)                      Reciprocal Lattice(1/A)
     4.3693630    -7.5679570     0.0756890        0.719004753  -0.415159985  -0.004232764
     4.3693630     7.5679570    -0.0756360        0.719004702   0.415160076   0.004241852
    -0.0000860    -0.1388990    13.6089510       -0.000002800   0.004616380   0.461742166

                       Lattice parameters(A)       Cell Angles
                    a =      8.739052          alpha =   91.002492
                    b =      8.739052          beta  =   88.997522
                    c =     13.609660          gamma =  120.002468

                       Current cell volume =           899.926644       A**3
                                   density =             2.739839   AMU/A**3
                                           =             4.549610     g/cm^3

                           -------------------------------
                                     Cell Contents
                           -------------------------------
                         Total number of ions in cell =   54
                      Total number of species in cell =    3
                        Max number of any one species =   46

            xxxxxxxxxxxxxxxxxxxxxxxxxxxxxxxxxxxxxxxxxxxxxxxxxxxxxxxxxxxx
            x  Element    Atom        Fractional coordinates of atoms  x
            x            Number           u          v          w      x
            x----------------------------------------------------------x
            x  Al           1         0.219996   0.444907   0.915446   x 
            x  Al           2         0.446433   0.883893   0.751022   x 
            x  Al           3         0.886441   0.111002   0.249256   x 
            x  Al           4         0.781569   0.221083   0.751621   x 
            x  Al           5         0.885394   0.445419   0.585027   x 
            x  Al           6         0.777651   0.548866   0.750608   x 
            x  Ti           1         0.103279   0.232817   0.080418   x 
            x  Ti           2         0.216155   0.108856   0.245566   x 
            x  Ti           3         0.110011   0.219632   0.413440   x 
            x  Ti           4         0.220396   0.113283   0.584501   x 
            x  Ti           5         0.109255   0.221623   0.755627   x 
            x  Ti           6         0.219503   0.114816   0.920475   x 
            x  Ti           7         0.215066   0.447222   0.246789   x 
            x  Ti           8         0.109295   0.558598   0.418778   x 
            x  Ti           9         0.222706   0.439540   0.582768   x 
            x  Ti          10         0.115625   0.554727   0.747779   x 
            x  Ti          11         0.107393   0.880274   0.081147   x 
            x  Ti          12         0.218892   0.774872   0.249152   x 
            x  Ti          13         0.113514   0.892110   0.417165   x 
            x  Ti          14         0.224863   0.783578   0.586854   x 
            x  Ti          15         0.119497   0.889742   0.754157   x 
            x  Ti          16         0.229912   0.775522   0.918082   x 
            x  Ti          17         0.447801   0.220534   0.082913   x 
            x  Ti          18         0.554973   0.109054   0.251671   x 
            x  Ti          19         0.439409   0.220787   0.414680   x 
            x  Ti          20         0.555972   0.109078   0.584947   x 
            x  Ti          21         0.445984   0.216759   0.751354   x 
            x  Ti          22         0.560802   0.103085   0.915914   x 
            x  Ti          23         0.437336   0.553747   0.080761   x 
            x  Ti          24         0.555177   0.444877   0.247306   x 
            x  Ti          25         0.444371   0.556499   0.413600   x 
            x  Ti          26         0.555187   0.443536   0.581254   x 
            x  Ti          27         0.447221   0.554440   0.750740   x 
            x  Ti          28         0.551306   0.441513   0.916646   x 
            x  Ti          29         0.439201   0.889437   0.083502   x 
            x  Ti          30         0.557427   0.783178   0.248438   x 
            x  Ti          31         0.439909   0.886969   0.420472   x 
            x  Ti          32         0.549436   0.772836   0.582393   x 
            x  Ti          33         0.553858   0.778457   0.918968   x 
            x  Ti          34         0.775398   0.217811   0.083901   x 
            x  Ti          35         0.780941   0.226238   0.419536   x 
            x  Ti          36         0.898446   0.122743   0.582247   x 
            x  Ti          37         0.781084   0.557143   0.079138   x 
            x  Ti          38         0.892695   0.446386   0.249959   x 
            x  Ti          39         0.777701   0.556095   0.418633   x 
            x  Ti          40         0.895009   0.437072   0.915384   x 
            x  Ti          41         0.785430   0.896558   0.081420   x 
            x  Ti          42         0.887957   0.781146   0.250966   x 
            x  Ti          43         0.778287   0.892939   0.418009   x 
            x  Ti          44         0.892531   0.775469   0.587315   x 
            x  Ti          45         0.775386   0.893703   0.751153   x 
            x  Ti          46         0.885543   0.776190   0.913040   x 
            x  V            1         0.116433   0.560537   0.079059   x 
            x  V            2         0.888941   0.112801   0.919001   x 
            xxxxxxxxxxxxxxxxxxxxxxxxxxxxxxxxxxxxxxxxxxxxxxxxxxxxxxxxxxxx


                         No user defined ionic velocities

                           -------------------------------
                                   Details of Species
                           -------------------------------

                               Mass of species in AMU
                                    Al   26.9815400
                                    Ti   47.8670000
                                    V   50.9415000

                          Electric Quadrupole Moment (Barn)
                                    Al    0.1466000 Isotope 27
                                    Ti    0.3020000 Isotope 47
                                    V   -0.0520000 Isotope 51

                          Files used for pseudopotentials:
                                    Al 3|2.2|2.2|1.4|4|5|5|30:31:32U2U2
                                    Ti 3|1.8|9|10|11|30U:40:31:32(qc=5.5)
                                    V 3|1.8|1.8|0.6|12|14|16|30U:40:31:32(qc=7)

                           -------------------------------
                              k-Points For BZ Sampling
                           -------------------------------
                       MP grid size for SCF calculation is  7  7  4
                            with an offset of   0.000  0.000  0.000
                       Number of kpoints used =            98

                           -------------------------------
                               Symmetry and Constraints
                           -------------------------------

                      Maximum deviation from symmetry =  0.00000         ANG

                      Number of symmetry operations   =           1
                      Number of ionic constraints     =           3
                      Point group of crystal =     1: C1, 1, 1
                      Space group of crystal =     1: P1, P 1

             Set iprint > 1 for details on symmetry rotations/translations

                         Centre of mass is constrained
             Set iprint > 1 for details of linear ionic constraints

                         Number of cell constraints= 0
                         Cell constraints are:  1 2 3 4 5 6

                         External pressure/stress (GPa)
                          0.00000   0.00000   0.00000
                                    0.00000   0.00000
                                              0.00000
 
+---------------- MEMORY AND SCRATCH DISK ESTIMATES PER PROCESS --------------+
|                                                     Memory          Disk    |
| Baseline code, static data and system overhead      591.0 MB         0.0 MB |
| BLAS internal memory storage                          0.0 MB         0.0 MB |
| Model and support data                              545.7 MB         0.0 MB |
| Electronic energy minimisation requirements         181.3 MB         0.0 MB |
| Force calculation requirements                        6.8 MB         0.0 MB |
| Stress calculation requirements                       7.3 MB         0.0 MB |
|                                               ----------------------------- |
| Approx. total storage required per process         1318.0 MB         0.0 MB |
|                                                                             |
| Requirements will fluctuate during execution and may exceed these estimates |
+-----------------------------------------------------------------------------+
Calculating finite basis set correction with  3 cut-off energies.
Calculating total energy with cut-off of  790.000 eV.
------------------------------------------------------------------------ <-- SCF
SCF loop      Energy           Fermi           Energy gain       Timer   <-- SCF
                               energy          per atom          (sec)   <-- SCF
------------------------------------------------------------------------ <-- SCF
Initial  -7.02405876E+004  0.00000000E+000                        24.76  <-- SCF
      1  -7.61374386E+004  1.18084561E+001   1.09200944E+002      94.75  <-- SCF
      2  -7.80235140E+004  9.45060923E+000   3.49273233E+001     151.77  <-- SCF
      3  -7.81363613E+004  9.18402941E+000   2.08976446E+000     211.54  <-- SCF
      4  -7.81409646E+004  8.40462499E+000   8.52461354E-002     277.48  <-- SCF
      5  -7.81414629E+004  8.58160238E+000   9.22867354E-003     350.96  <-- SCF
      6  -7.81356851E+004  8.75020228E+000  -1.06997090E-001     417.46  <-- SCF
      7  -7.81344381E+004  8.72976326E+000  -2.30922360E-002     490.77  <-- SCF
      8  -7.81343502E+004  8.68617556E+000  -1.62802820E-003     557.20  <-- SCF
      9  -7.81342573E+004  8.67997392E+000  -1.72052470E-003     625.24  <-- SCF
     10  -7.81343054E+004  8.67945283E+000   8.91044662E-004     692.24  <-- SCF
     11  -7.81342163E+004  8.67934111E+000  -1.65032148E-003     758.99  <-- SCF
     12  -7.81342211E+004  8.67910319E+000   8.84357773E-005     826.06  <-- SCF
     13  -7.81342181E+004  8.67874913E+000  -5.54294060E-005     888.46  <-- SCF
     14  -7.81342183E+004  8.67886398E+000   4.49714812E-006     947.46  <-- SCF
     15  -7.81342181E+004  8.67888269E+000  -4.23999905E-006     999.61  <-- SCF
     16  -7.81342181E+004  8.67890533E+000  -9.12710463E-008    1039.65  <-- SCF
     17  -7.81342181E+004  8.67891095E+000  -1.35522251E-007    1079.15  <-- SCF
------------------------------------------------------------------------ <-- SCF
 
Final energy, E             =  -78134.14683231     eV
Final free energy (E-TS)    =  -78134.21807674     eV
(energies not corrected for finite basis set)
 
NB est. 0K energy (E-0.5TS)      =  -78134.18245453     eV
 
Calculating total energy with cut-off of  795.000 eV.
------------------------------------------------------------------------ <-- SCF
SCF loop      Energy           Fermi           Energy gain       Timer   <-- SCF
                               energy          per atom          (sec)   <-- SCF
------------------------------------------------------------------------ <-- SCF
Initial  -7.81341468E+004  0.00000000E+000                      1089.71  <-- SCF
      1  -7.81342194E+004  8.67898800E+000   1.34453396E-003    1141.60  <-- SCF
      2  -7.81342195E+004  8.67898624E+000   2.56024616E-006    1194.25  <-- SCF
      3  -7.81342358E+004  8.67725444E+000   3.01364413E-004    1259.37  <-- SCF
      4  -7.81342194E+004  8.67954795E+000  -3.03232348E-004    1322.89  <-- SCF
      5  -7.81342190E+004  8.67896638E+000  -8.43893099E-006    1382.67  <-- SCF
      6  -7.81342190E+004  8.67889214E+000   7.38506132E-007    1427.82  <-- SCF
      7  -7.81342190E+004  8.67888811E+000  -6.57304792E-009    1466.43  <-- SCF
------------------------------------------------------------------------ <-- SCF
 
Final energy, E             =  -78134.14777286     eV
Final free energy (E-TS)    =  -78134.21902920     eV
(energies not corrected for finite basis set)
 
NB est. 0K energy (E-0.5TS)      =  -78134.18340103     eV
 
Calculating total energy with cut-off of  800.000 eV.
------------------------------------------------------------------------ <-- SCF
SCF loop      Energy           Fermi           Energy gain       Timer   <-- SCF
                               energy          per atom          (sec)   <-- SCF
------------------------------------------------------------------------ <-- SCF
Initial  -7.81341477E+004  0.00000000E+000                      1476.93  <-- SCF
      1  -7.81342222E+004  8.67875419E+000   1.38006529E-003    1531.50  <-- SCF
      2  -7.81342224E+004  8.67875300E+000   3.58795953E-006    1586.80  <-- SCF
      3  -7.81342969E+004  8.68073143E+000   1.37827745E-003    1652.61  <-- SCF
      4  -7.81342260E+004  8.67809648E+000  -1.31144873E-003    1717.84  <-- SCF
      5  -7.81342196E+004  8.67874393E+000  -1.18922448E-004    1776.08  <-- SCF
      6  -7.81342201E+004  8.67905601E+000   9.83269053E-006    1836.63  <-- SCF
      7  -7.81342200E+004  8.67882944E+000  -3.42694666E-006    1888.15  <-- SCF
      8  -7.81342199E+004  8.67890942E+000  -8.04259756E-007    1928.04  <-- SCF
      9  -7.81342199E+004  8.67892885E+000  -4.42571630E-008    1966.79  <-- SCF
------------------------------------------------------------------------ <-- SCF
 
Final energy, E             =  -78134.14867973     eV
Final free energy (E-TS)    =  -78134.21991797     eV
(energies not corrected for finite basis set)
 
NB est. 0K energy (E-0.5TS)      =  -78134.18429885     eV
 
 For future reference: finite basis dEtot/dlog(Ecut) =      -0.146938eV
 Total energy corrected for finite basis set =  -78134.219924 eV

 ************************** Forces **************************
 *                                                          *
 *               Cartesian components (eV/A)                *
 * -------------------------------------------------------- *
 *                         x            y            z      *
 *                                                          *
 * Al              1      0.07698      0.01594      0.08133 *
 * Al              2     -0.01494     -0.05651     -0.07971 *
 * Al              3      0.01197     -0.01178      0.10062 *
 * Al              4     -0.03653      0.02427     -0.08309 *
 * Al              5     -0.07352     -0.03849      0.10080 *
 * Al              6      0.04295      0.11821      0.00085 *
 * Ti              1      0.01128      0.07268     -0.04552 *
 * Ti              2     -0.03383      0.07040     -0.01484 *
 * Ti              3     -0.02442     -0.04587     -0.04826 *
 * Ti              4     -0.02363      0.00554     -0.03356 *
 * Ti              5     -0.03106     -0.01420     -0.14496 *
 * Ti              6      0.08627      0.04527      0.03827 *
 * Ti              7     -0.08952      0.04018      0.06171 *
 * Ti              8     -0.01651     -0.02423      0.01907 *
 * Ti              9     -0.00081     -0.00208      0.04110 *
 * Ti             10     -0.10908      0.02348      0.03944 *
 * Ti             11     -0.00526     -0.05857     -0.03663 *
 * Ti             12     -0.04583     -0.00659      0.03291 *
 * Ti             13     -0.01455      0.04751      0.02881 *
 * Ti             14      0.03180     -0.00475      0.03451 *
 * Ti             15     -0.04051      0.09558      0.00451 *
 * Ti             16     -0.09604      0.06501     -0.01748 *
 * Ti             17     -0.00026      0.02709     -0.02698 *
 * Ti             18      0.05541     -0.03134     -0.04732 *
 * Ti             19      0.00122      0.01594      0.04664 *
 * Ti             20     -0.00332      0.06869     -0.06232 *
 * Ti             21      0.03362     -0.07858      0.00051 *
 * Ti             22     -0.05594      0.17746      0.15873 *
 * Ti             23     -0.00437      0.00691     -0.05061 *
 * Ti             24     -0.01236     -0.01479      0.01792 *
 * Ti             25     -0.00462      0.03084     -0.03083 *
 * Ti             26      0.04981     -0.07585     -0.04602 *
 * Ti             27      0.10489     -0.02760      0.03140 *
 * Ti             28     -0.03148      0.02038      0.07519 *
 * Ti             29     -0.07612      0.00105      0.01131 *
 * Ti             30      0.08247     -0.01353     -0.01915 *
 * Ti             31     -0.03252      0.00473     -0.12105 *
 * Ti             32     -0.03135     -0.07626     -0.06257 *
 * Ti             33     -0.01919     -0.03179     -0.00484 *
 * Ti             34     -0.03569     -0.13389     -0.00400 *
 * Ti             35      0.02095     -0.04807     -0.03570 *
 * Ti             36      0.03661     -0.02168     -0.06553 *
 * Ti             37     -0.01538      0.00815      0.03134 *
 * Ti             38      0.02268     -0.09657     -0.11822 *
 * Ti             39      0.00505     -0.08105      0.10566 *
 * Ti             40      0.07332      0.10193      0.09173 *
 * Ti             41     -0.02628      0.07566     -0.00039 *
 * Ti             42      0.03585      0.03264     -0.03013 *
 * Ti             43      0.04078      0.00339     -0.06965 *
 * Ti             44     -0.07714     -0.03299     -0.02964 *
 * Ti             45     -0.04655     -0.05305     -0.04226 *
 * Ti             46      0.00359     -0.05117      0.10774 *
 * V               1      0.08749      0.05031     -0.04778 *
 * V               2      0.21360     -0.11795      0.15694 *
 *                                                          *
 ************************************************************

 ***************** Stress Tensor *****************
 *                                               *
 *          Cartesian components (GPa)           *
 * --------------------------------------------- *
 *             x             y             z     *
 *                                               *
 *  x     -1.629157     -0.053738     -0.229046  *
 *  y     -0.053738     -1.493916     -1.099013  *
 *  z     -0.229046     -1.099013     -4.193482  *
 *                                               *
 *  Pressure:    2.4389                          *
 *                                               *
 *************************************************

 Pseudo atomic calculation performed for Al 3s2 3p1

 Converged in 15 iterations to a total energy of -107.1308 eV

 Pseudo atomic calculation performed for Ti 3s2 3p6 3d2 4s2

 Converged in 34 iterations to a total energy of -1587.0236 eV

 Pseudo atomic calculation performed for V 3s2 3p6 3d3 4s2

 Converged in 35 iterations to a total energy of -2065.7874 eV
Charge spilling parameter for spin component 1 = 0.09%

            Orbital Populations       
     Ion    Atom   Orbital             Charge
  -------------------------------------------
     Al     1      S                    0.918
     Al     1      Px                   0.681
     Al     1      Py                   0.687
     Al     1      Pz                   0.715
     Al     2      S                    0.935
     Al     2      Px                   0.646
     Al     2      Py                   0.705
     Al     2      Pz                   0.718
     Al     3      S                    0.925
     Al     3      Px                   0.690
     Al     3      Py                   0.686
     Al     3      Pz                   0.720
     Al     4      S                    0.953
     Al     4      Px                   0.658
     Al     4      Py                   0.680
     Al     4      Pz                   0.690
     Al     5      S                    0.949
     Al     5      Px                   0.701
     Al     5      Py                   0.702
     Al     5      Pz                   0.658
     Al     6      S                    0.955
     Al     6      Px                   0.682
     Al     6      Py                   0.656
     Al     6      Pz                   0.700
     Ti     1      S                    2.004
     Ti     1      Px                   2.007
     Ti     1      Py                   2.005
     Ti     1      Pz                   2.007
     Ti     1      S                    0.286
     Ti     1      Dzz                  0.610
     Ti     1      Dzy                  0.467
     Ti     1      Dzx                  0.522
     Ti     1      Dxx-yy               0.570
     Ti     1      Dxy                  0.567
     Ti     1      Px                   0.322
     Ti     1      Py                   0.322
     Ti     1      Pz                   0.281
     Ti     2      S                    2.003
     Ti     2      Px                   2.006
     Ti     2      Py                   2.006
     Ti     2      Pz                   2.006
     Ti     2      S                    0.299
     Ti     2      Dzz                  0.601
     Ti     2      Dzy                  0.480
     Ti     2      Dzx                  0.506
     Ti     2      Dxx-yy               0.575
     Ti     2      Dxy                  0.568
     Ti     2      Px                   0.321
     Ti     2      Py                   0.316
     Ti     2      Pz                   0.306
     Ti     3      S                    2.004
     Ti     3      Px                   2.006
     Ti     3      Py                   2.006
     Ti     3      Pz                   2.007
     Ti     3      S                    0.290
     Ti     3      Dzz                  0.621
     Ti     3      Dzy                  0.494
     Ti     3      Dzx                  0.471
     Ti     3      Dxx-yy               0.572
     Ti     3      Dxy                  0.565
     Ti     3      Px                   0.320
     Ti     3      Py                   0.331
     Ti     3      Pz                   0.293
     Ti     4      S                    2.004
     Ti     4      Px                   2.006
     Ti     4      Py                   2.006
     Ti     4      Pz                   2.006
     Ti     4      S                    0.284
     Ti     4      Dzz                  0.619
     Ti     4      Dzy                  0.491
     Ti     4      Dzx                  0.465
     Ti     4      Dxx-yy               0.576
     Ti     4      Dxy                  0.564
     Ti     4      Px                   0.328
     Ti     4      Py                   0.338
     Ti     4      Pz                   0.330
     Ti     5      S                    2.003
     Ti     5      Px                   2.006
     Ti     5      Py                   2.006
     Ti     5      Pz                   2.006
     Ti     5      S                    0.289
     Ti     5      Dzz                  0.625
     Ti     5      Dzy                  0.505
     Ti     5      Dzx                  0.472
     Ti     5      Dxx-yy               0.588
     Ti     5      Dxy                  0.530
     Ti     5      Px                   0.324
     Ti     5      Py                   0.294
     Ti     5      Pz                   0.314
     Ti     6      S                    2.003
     Ti     6      Px                   2.005
     Ti     6      Py                   2.006
     Ti     6      Pz                   2.006
     Ti     6      S                    0.298
     Ti     6      Dzz                  0.597
     Ti     6      Dzy                  0.508
     Ti     6      Dzx                  0.488
     Ti     6      Dxx-yy               0.568
     Ti     6      Dxy                  0.565
     Ti     6      Px                   0.322
     Ti     6      Py                   0.324
     Ti     6      Pz                   0.313
     Ti     7      S                    2.003
     Ti     7      Px                   2.006
     Ti     7      Py                   2.006
     Ti     7      Pz                   2.006
     Ti     7      S                    0.301
     Ti     7      Dzz                  0.591
     Ti     7      Dzy                  0.514
     Ti     7      Dzx                  0.485
     Ti     7      Dxx-yy               0.530
     Ti     7      Dxy                  0.602
     Ti     7      Px                   0.299
     Ti     7      Py                   0.342
     Ti     7      Pz                   0.322
     Ti     8      S                    2.004
     Ti     8      Px                   2.006
     Ti     8      Py                   2.006
     Ti     8      Pz                   2.007
     Ti     8      S                    0.295
     Ti     8      Dzz                  0.626
     Ti     8      Dzy                  0.467
     Ti     8      Dzx                  0.484
     Ti     8      Dxx-yy               0.572
     Ti     8      Dxy                  0.575
     Ti     8      Px                   0.326
     Ti     8      Py                   0.334
     Ti     8      Pz                   0.283
     Ti     9      S                    2.003
     Ti     9      Px                   2.006
     Ti     9      Py                   2.006
     Ti     9      Pz                   2.006
     Ti     9      S                    0.306
     Ti     9      Dzz                  0.599
     Ti     9      Dzy                  0.462
     Ti     9      Dzx                  0.523
     Ti     9      Dxx-yy               0.553
     Ti     9      Dxy                  0.571
     Ti     9      Px                   0.327
     Ti     9      Py                   0.309
     Ti     9      Pz                   0.323
     Ti    10      S                    2.003
     Ti    10      Px                   2.006
     Ti    10      Py                   2.006
     Ti    10      Pz                   2.007
     Ti    10      S                    0.319
     Ti    10      Dzz                  0.628
     Ti    10      Dzy                  0.499
     Ti    10      Dzx                  0.498
     Ti    10      Dxx-yy               0.539
     Ti    10      Dxy                  0.611
     Ti    10      Px                   0.274
     Ti    10      Py                   0.305
     Ti    10      Pz                   0.300
     Ti    11      S                    2.004
     Ti    11      Px                   2.006
     Ti    11      Py                   2.006
     Ti    11      Pz                   2.007
     Ti    11      S                    0.296
     Ti    11      Dzz                  0.605
     Ti    11      Dzy                  0.507
     Ti    11      Dzx                  0.471
     Ti    11      Dxx-yy               0.573
     Ti    11      Dxy                  0.567
     Ti    11      Px                   0.331
     Ti    11      Py                   0.342
     Ti    11      Pz                   0.312
     Ti    12      S                    2.004
     Ti    12      Px                   2.006
     Ti    12      Py                   2.006
     Ti    12      Pz                   2.006
     Ti    12      S                    0.278
     Ti    12      Dzz                  0.622
     Ti    12      Dzy                  0.466
     Ti    12      Dzx                  0.476
     Ti    12      Dxx-yy               0.576
     Ti    12      Dxy                  0.575
     Ti    12      Px                   0.331
     Ti    12      Py                   0.326
     Ti    12      Pz                   0.336
     Ti    13      S                    2.004
     Ti    13      Px                   2.006
     Ti    13      Py                   2.006
     Ti    13      Pz                   2.006
     Ti    13      S                    0.292
     Ti    13      Dzz                  0.602
     Ti    13      Dzy                  0.489
     Ti    13      Dzx                  0.479
     Ti    13      Dxx-yy               0.571
     Ti    13      Dxy                  0.565
     Ti    13      Px                   0.330
     Ti    13      Py                   0.338
     Ti    13      Pz                   0.307
     Ti    14      S                    2.004
     Ti    14      Px                   2.006
     Ti    14      Py                   2.007
     Ti    14      Pz                   2.007
     Ti    14      S                    0.305
     Ti    14      Dzz                  0.623
     Ti    14      Dzy                  0.497
     Ti    14      Dzx                  0.496
     Ti    14      Dxx-yy               0.537
     Ti    14      Dxy                  0.587
     Ti    14      Px                   0.291
     Ti    14      Py                   0.343
     Ti    14      Pz                   0.294
     Ti    15      S                    2.003
     Ti    15      Px                   2.005
     Ti    15      Py                   2.006
     Ti    15      Pz                   2.006
     Ti    15      S                    0.314
     Ti    15      Dzz                  0.587
     Ti    15      Dzy                  0.489
     Ti    15      Dzx                  0.533
     Ti    15      Dxx-yy               0.546
     Ti    15      Dxy                  0.583
     Ti    15      Px                   0.284
     Ti    15      Py                   0.322
     Ti    15      Pz                   0.324
     Ti    16      S                    2.004
     Ti    16      Px                   2.007
     Ti    16      Py                   2.006
     Ti    16      Pz                   2.007
     Ti    16      S                    0.287
     Ti    16      Dzz                  0.605
     Ti    16      Dzy                  0.500
     Ti    16      Dzx                  0.491
     Ti    16      Dxx-yy               0.589
     Ti    16      Dxy                  0.553
     Ti    16      Px                   0.325
     Ti    16      Py                   0.301
     Ti    16      Pz                   0.296
     Ti    17      S                    2.004
     Ti    17      Px                   2.006
     Ti    17      Py                   2.006
     Ti    17      Pz                   2.007
     Ti    17      S                    0.293
     Ti    17      Dzz                  0.602
     Ti    17      Dzy                  0.511
     Ti    17      Dzx                  0.472
     Ti    17      Dxx-yy               0.579
     Ti    17      Dxy                  0.556
     Ti    17      Px                   0.331
     Ti    17      Py                   0.347
     Ti    17      Pz                   0.314
     Ti    18      S                    2.004
     Ti    18      Px                   2.006
     Ti    18      Py                   2.006
     Ti    18      Pz                   2.006
     Ti    18      S                    0.300
     Ti    18      Dzz                  0.625
     Ti    18      Dzy                  0.501
     Ti    18      Dzx                  0.471
     Ti    18      Dxx-yy               0.601
     Ti    18      Dxy                  0.540
     Ti    18      Px                   0.336
     Ti    18      Py                   0.303
     Ti    18      Pz                   0.310
     Ti    19      S                    2.004
     Ti    19      Px                   2.006
     Ti    19      Py                   2.006
     Ti    19      Pz                   2.006
     Ti    19      S                    0.296
     Ti    19      Dzz                  0.597
     Ti    19      Dzy                  0.484
     Ti    19      Dzx                  0.496
     Ti    19      Dxx-yy               0.562
     Ti    19      Dxy                  0.577
     Ti    19      Px                   0.334
     Ti    19      Py                   0.333
     Ti    19      Pz                   0.319
     Ti    20      S                    2.003
     Ti    20      Px                   2.006
     Ti    20      Py                   2.006
     Ti    20      Pz                   2.006
     Ti    20      S                    0.305
     Ti    20      Dzz                  0.596
     Ti    20      Dzy                  0.504
     Ti    20      Dzx                  0.500
     Ti    20      Dxx-yy               0.540
     Ti    20      Dxy                  0.603
     Ti    20      Px                   0.291
     Ti    20      Py                   0.329
     Ti    20      Pz                   0.273
     Ti    21      S                    2.003
     Ti    21      Px                   2.005
     Ti    21      Py                   2.006
     Ti    21      Pz                   2.006
     Ti    21      S                    0.338
     Ti    21      Dzz                  0.610
     Ti    21      Dzy                  0.484
     Ti    21      Dzx                  0.506
     Ti    21      Dxx-yy               0.544
     Ti    21      Dxy                  0.588
     Ti    21      Px                   0.285
     Ti    21      Py                   0.310
     Ti    21      Pz                   0.329
     Ti    22      S                    2.004
     Ti    22      Px                   2.006
     Ti    22      Py                   2.005
     Ti    22      Pz                   2.007
     Ti    22      S                    0.287
     Ti    22      Dzz                  0.623
     Ti    22      Dzy                  0.475
     Ti    22      Dzx                  0.488
     Ti    22      Dxx-yy               0.570
     Ti    22      Dxy                  0.570
     Ti    22      Px                   0.326
     Ti    22      Py                   0.335
     Ti    22      Pz                   0.277
     Ti    23      S                    2.004
     Ti    23      Px                   2.006
     Ti    23      Py                   2.006
     Ti    23      Pz                   2.007
     Ti    23      S                    0.285
     Ti    23      Dzz                  0.621
     Ti    23      Dzy                  0.485
     Ti    23      Dzx                  0.495
     Ti    23      Dxx-yy               0.558
     Ti    23      Dxy                  0.570
     Ti    23      Px                   0.324
     Ti    23      Py                   0.336
     Ti    23      Pz                   0.290
     Ti    24      S                    2.003
     Ti    24      Px                   2.005
     Ti    24      Py                   2.005
     Ti    24      Pz                   2.006
     Ti    24      S                    0.293
     Ti    24      Dzz                  0.620
     Ti    24      Dzy                  0.478
     Ti    24      Dzx                  0.482
     Ti    24      Dxx-yy               0.559
     Ti    24      Dxy                  0.569
     Ti    24      Px                   0.333
     Ti    24      Py                   0.332
     Ti    24      Pz                   0.321
     Ti    25      S                    2.004
     Ti    25      Px                   2.006
     Ti    25      Py                   2.006
     Ti    25      Pz                   2.006
     Ti    25      S                    0.289
     Ti    25      Dzz                  0.610
     Ti    25      Dzy                  0.490
     Ti    25      Dzx                  0.487
     Ti    25      Dxx-yy               0.569
     Ti    25      Dxy                  0.574
     Ti    25      Px                   0.335
     Ti    25      Py                   0.333
     Ti    25      Pz                   0.322
     Ti    26      S                    2.004
     Ti    26      Px                   2.006
     Ti    26      Py                   2.006
     Ti    26      Pz                   2.006
     Ti    26      S                    0.308
     Ti    26      Dzz                  0.597
     Ti    26      Dzy                  0.535
     Ti    26      Dzx                  0.473
     Ti    26      Dxx-yy               0.598
     Ti    26      Dxy                  0.542
     Ti    26      Px                   0.318
     Ti    26      Py                   0.304
     Ti    26      Pz                   0.303
     Ti    27      S                    2.003
     Ti    27      Px                   2.006
     Ti    27      Py                   2.006
     Ti    27      Pz                   2.006
     Ti    27      S                    0.304
     Ti    27      Dzz                  0.617
     Ti    27      Dzy                  0.500
     Ti    27      Dzx                  0.493
     Ti    27      Dxx-yy               0.589
     Ti    27      Dxy                  0.546
     Ti    27      Px                   0.318
     Ti    27      Py                   0.276
     Ti    27      Pz                   0.310
     Ti    28      S                    2.004
     Ti    28      Px                   2.006
     Ti    28      Py                   2.006
     Ti    28      Pz                   2.007
     Ti    28      S                    0.308
     Ti    28      Dzz                  0.608
     Ti    28      Dzy                  0.487
     Ti    28      Dzx                  0.494
     Ti    28      Dxx-yy               0.587
     Ti    28      Dxy                  0.555
     Ti    28      Px                   0.318
     Ti    28      Py                   0.321
     Ti    28      Pz                   0.300
     Ti    29      S                    2.004
     Ti    29      Px                   2.007
     Ti    29      Py                   2.006
     Ti    29      Pz                   2.007
     Ti    29      S                    0.282
     Ti    29      Dzz                  0.598
     Ti    29      Dzy                  0.488
     Ti    29      Dzx                  0.508
     Ti    29      Dxx-yy               0.563
     Ti    29      Dxy                  0.552
     Ti    29      Px                   0.348
     Ti    29      Py                   0.337
     Ti    29      Pz                   0.295
     Ti    30      S                    2.004
     Ti    30      Px                   2.006
     Ti    30      Py                   2.006
     Ti    30      Pz                   2.006
     Ti    30      S                    0.311
     Ti    30      Dzz                  0.607
     Ti    30      Dzy                  0.489
     Ti    30      Dzx                  0.484
     Ti    30      Dxx-yy               0.545
     Ti    30      Dxy                  0.607
     Ti    30      Px                   0.301
     Ti    30      Py                   0.339
     Ti    30      Pz                   0.314
     Ti    31      S                    2.004
     Ti    31      Px                   2.006
     Ti    31      Py                   2.006
     Ti    31      Pz                   2.006
     Ti    31      S                    0.291
     Ti    31      Dzz                  0.592
     Ti    31      Dzy                  0.489
     Ti    31      Dzx                  0.497
     Ti    31      Dxx-yy               0.560
     Ti    31      Dxy                  0.572
     Ti    31      Px                   0.337
     Ti    31      Py                   0.342
     Ti    31      Pz                   0.315
     Ti    32      S                    2.003
     Ti    32      Px                   2.005
     Ti    32      Py                   2.006
     Ti    32      Pz                   2.006
     Ti    32      S                    0.298
     Ti    32      Dzz                  0.607
     Ti    32      Dzy                  0.497
     Ti    32      Dzx                  0.491
     Ti    32      Dxx-yy               0.568
     Ti    32      Dxy                  0.540
     Ti    32      Px                   0.335
     Ti    32      Py                   0.325
     Ti    32      Pz                   0.300
     Ti    33      S                    2.004
     Ti    33      Px                   2.006
     Ti    33      Py                   2.007
     Ti    33      Pz                   2.007
     Ti    33      S                    0.308
     Ti    33      Dzz                  0.606
     Ti    33      Dzy                  0.495
     Ti    33      Dzx                  0.489
     Ti    33      Dxx-yy               0.554
     Ti    33      Dxy                  0.586
     Ti    33      Px                   0.303
     Ti    33      Py                   0.326
     Ti    33      Pz                   0.297
     Ti    34      S                    2.004
     Ti    34      Px                   2.006
     Ti    34      Py                   2.006
     Ti    34      Pz                   2.007
     Ti    34      S                    0.291
     Ti    34      Dzz                  0.603
     Ti    34      Dzy                  0.511
     Ti    34      Dzx                  0.477
     Ti    34      Dxx-yy               0.569
     Ti    34      Dxy                  0.551
     Ti    34      Px                   0.342
     Ti    34      Py                   0.319
     Ti    34      Pz                   0.299
     Ti    35      S                    2.003
     Ti    35      Px                   2.006
     Ti    35      Py                   2.006
     Ti    35      Pz                   2.007
     Ti    35      S                    0.297
     Ti    35      Dzz                  0.620
     Ti    35      Dzy                  0.495
     Ti    35      Dzx                  0.483
     Ti    35      Dxx-yy               0.574
     Ti    35      Dxy                  0.561
     Ti    35      Px                   0.331
     Ti    35      Py                   0.321
     Ti    35      Pz                   0.280
     Ti    36      S                    2.003
     Ti    36      Px                   2.006
     Ti    36      Py                   2.006
     Ti    36      Pz                   2.006
     Ti    36      S                    0.307
     Ti    36      Dzz                  0.597
     Ti    36      Dzy                  0.487
     Ti    36      Dzx                  0.523
     Ti    36      Dxx-yy               0.560
     Ti    36      Dxy                  0.562
     Ti    36      Px                   0.331
     Ti    36      Py                   0.305
     Ti    36      Pz                   0.313
     Ti    37      S                    2.003
     Ti    37      Px                   2.006
     Ti    37      Py                   2.005
     Ti    37      Pz                   2.005
     Ti    37      S                    0.295
     Ti    37      Dzz                  0.602
     Ti    37      Dzy                  0.481
     Ti    37      Dzx                  0.490
     Ti    37      Dxx-yy               0.559
     Ti    37      Dxy                  0.577
     Ti    37      Px                   0.334
     Ti    37      Py                   0.340
     Ti    37      Pz                   0.326
     Ti    38      S                    2.003
     Ti    38      Px                   2.006
     Ti    38      Py                   2.005
     Ti    38      Pz                   2.005
     Ti    38      S                    0.301
     Ti    38      Dzz                  0.599
     Ti    38      Dzy                  0.496
     Ti    38      Dzx                  0.482
     Ti    38      Dxx-yy               0.603
     Ti    38      Dxy                  0.536
     Ti    38      Px                   0.336
     Ti    38      Py                   0.299
     Ti    38      Pz                   0.320
     Ti    39      S                    2.004
     Ti    39      Px                   2.006
     Ti    39      Py                   2.006
     Ti    39      Pz                   2.006
     Ti    39      S                    0.293
     Ti    39      Dzz                  0.625
     Ti    39      Dzy                  0.472
     Ti    39      Dzx                  0.483
     Ti    39      Dxx-yy               0.582
     Ti    39      Dxy                  0.566
     Ti    39      Px                   0.333
     Ti    39      Py                   0.316
     Ti    39      Pz                   0.299
     Ti    40      S                    2.003
     Ti    40      Px                   2.006
     Ti    40      Py                   2.005
     Ti    40      Pz                   2.006
     Ti    40      S                    0.292
     Ti    40      Dzz                  0.626
     Ti    40      Dzy                  0.477
     Ti    40      Dzx                  0.498
     Ti    40      Dxx-yy               0.598
     Ti    40      Dxy                  0.541
     Ti    40      Px                   0.327
     Ti    40      Py                   0.285
     Ti    40      Pz                   0.291
     Ti    41      S                    2.004
     Ti    41      Px                   2.006
     Ti    41      Py                   2.006
     Ti    41      Pz                   2.007
     Ti    41      S                    0.282
     Ti    41      Dzz                  0.605
     Ti    41      Dzy                  0.486
     Ti    41      Dzx                  0.501
     Ti    41      Dxx-yy               0.565
     Ti    41      Dxy                  0.572
     Ti    41      Px                   0.319
     Ti    41      Py                   0.327
     Ti    41      Pz                   0.305
     Ti    42      S                    2.004
     Ti    42      Px                   2.006
     Ti    42      Py                   2.006
     Ti    42      Pz                   2.006
     Ti    42      S                    0.309
     Ti    42      Dzz                  0.615
     Ti    42      Dzy                  0.465
     Ti    42      Dzx                  0.504
     Ti    42      Dxx-yy               0.586
     Ti    42      Dxy                  0.563
     Ti    42      Px                   0.325
     Ti    42      Py                   0.317
     Ti    42      Pz                   0.317
     Ti    43      S                    2.003
     Ti    43      Px                   2.006
     Ti    43      Py                   2.006
     Ti    43      Pz                   2.006
     Ti    43      S                    0.294
     Ti    43      Dzz                  0.609
     Ti    43      Dzy                  0.485
     Ti    43      Dzx                  0.493
     Ti    43      Dxx-yy               0.569
     Ti    43      Dxy                  0.571
     Ti    43      Px                   0.326
     Ti    43      Py                   0.331
     Ti    43      Pz                   0.298
     Ti    44      S                    2.003
     Ti    44      Px                   2.006
     Ti    44      Py                   2.005
     Ti    44      Pz                   2.006
     Ti    44      S                    0.309
     Ti    44      Dzz                  0.605
     Ti    44      Dzy                  0.507
     Ti    44      Dzx                  0.492
     Ti    44      Dxx-yy               0.595
     Ti    44      Dxy                  0.543
     Ti    44      Px                   0.320
     Ti    44      Py                   0.301
     Ti    44      Pz                   0.314
     Ti    45      S                    2.003
     Ti    45      Px                   2.006
     Ti    45      Py                   2.005
     Ti    45      Pz                   2.005
     Ti    45      S                    0.312
     Ti    45      Dzz                  0.586
     Ti    45      Dzy                  0.513
     Ti    45      Dzx                  0.493
     Ti    45      Dxx-yy               0.631
     Ti    45      Dxy                  0.520
     Ti    45      Px                   0.337
     Ti    45      Py                   0.252
     Ti    45      Pz                   0.340
     Ti    46      S                    2.003
     Ti    46      Px                   2.006
     Ti    46      Py                   2.005
     Ti    46      Pz                   2.006
     Ti    46      S                    0.296
     Ti    46      Dzz                  0.615
     Ti    46      Dzy                  0.490
     Ti    46      Dzx                  0.493
     Ti    46      Dxx-yy               0.556
     Ti    46      Dxy                  0.572
     Ti    46      Px                   0.326
     Ti    46      Py                   0.339
     Ti    46      Pz                   0.305
      V     1      S                    2.002
      V     1      Px                   2.003
      V     1      Py                   2.004
      V     1      Pz                   2.004
      V     1      Dzz                  0.868
      V     1      Dzy                  0.648
      V     1      Dzx                  0.686
      V     1      Dxx-yy               0.759
      V     1      Dxy                  0.770
      V     1      S                    0.360
      V     1      Px                   0.344
      V     1      Py                   0.324
      V     1      Pz                   0.301
      V     2      S                    2.001
      V     2      Px                   2.003
      V     2      Py                   2.004
      V     2      Pz                   2.004
      V     2      Dzz                  0.803
      V     2      Dzy                  0.658
      V     2      Dzx                  0.755
      V     2      Dxx-yy               0.687
      V     2      Dxy                  0.835
      V     2      S                    0.366
      V     2      Px                   0.308
      V     2      Py                   0.334
      V     2      Pz                   0.291
  -------------------------------------------
                           Total:     596.000
  -------------------------------------------

     Atomic Populations (Mulliken)
     -----------------------------
Species          Ion     s       p       d       f      Total   Charge (e)
==========================================================================
  Al              1     0.918   2.083   0.000   0.000   3.001    -0.001
  Al              2     0.935   2.069   0.000   0.000   3.005    -0.005
  Al              3     0.925   2.097   0.000   0.000   3.022    -0.022
  Al              4     0.953   2.028   0.000   0.000   2.981     0.019
  Al              5     0.949   2.061   0.000   0.000   3.010    -0.010
  Al              6     0.955   2.039   0.000   0.000   2.994     0.006
  Ti              1     2.290   6.943   2.737   0.000  11.970     0.030
  Ti              2     2.302   6.960   2.730   0.000  11.993     0.007
  Ti              3     2.293   6.963   2.723   0.000  11.979     0.021
  Ti              4     2.288   7.015   2.715   0.000  12.018    -0.018
  Ti              5     2.293   6.950   2.720   0.000  11.963     0.037
  Ti              6     2.301   6.976   2.726   0.000  12.003    -0.003
  Ti              7     2.304   6.981   2.723   0.000  12.008    -0.008
  Ti              8     2.299   6.961   2.723   0.000  11.983     0.017
  Ti              9     2.309   6.977   2.708   0.000  11.995     0.005
  Ti             10     2.322   6.897   2.775   0.000  11.994     0.006
  Ti             11     2.300   7.005   2.722   0.000  12.028    -0.028
  Ti             12     2.282   7.012   2.715   0.000  12.010    -0.010
  Ti             13     2.296   6.994   2.705   0.000  11.995     0.005
  Ti             14     2.309   6.947   2.740   0.000  11.996     0.004
  Ti             15     2.317   6.947   2.737   0.000  12.001    -0.001
  Ti             16     2.290   6.942   2.737   0.000  11.969     0.031
  Ti             17     2.297   7.010   2.721   0.000  12.027    -0.027
  Ti             18     2.304   6.967   2.737   0.000  12.008    -0.008
  Ti             19     2.300   7.005   2.716   0.000  12.021    -0.021
  Ti             20     2.308   6.910   2.744   0.000  11.962     0.038
  Ti             21     2.341   6.942   2.732   0.000  12.014    -0.014
  Ti             22     2.290   6.956   2.726   0.000  11.972     0.028
  Ti             23     2.289   6.968   2.729   0.000  11.986     0.014
  Ti             24     2.296   7.003   2.708   0.000  12.006    -0.006
  Ti             25     2.293   7.008   2.728   0.000  12.030    -0.030
  Ti             26     2.312   6.944   2.744   0.000  12.000    -0.000
  Ti             27     2.307   6.922   2.744   0.000  11.973     0.027
  Ti             28     2.312   6.956   2.731   0.000  11.999     0.001
  Ti             29     2.286   7.001   2.709   0.000  11.996     0.004
  Ti             30     2.314   6.972   2.733   0.000  12.019    -0.019
  Ti             31     2.295   7.013   2.710   0.000  12.018    -0.018
  Ti             32     2.301   6.978   2.703   0.000  11.983     0.017
  Ti             33     2.312   6.946   2.729   0.000  11.987     0.013
  Ti             34     2.295   6.978   2.710   0.000  11.983     0.017
  Ti             35     2.300   6.951   2.733   0.000  11.984     0.016
  Ti             36     2.310   6.968   2.729   0.000  12.007    -0.007
  Ti             37     2.298   7.016   2.709   0.000  12.022    -0.022
  Ti             38     2.304   6.972   2.715   0.000  11.992     0.008
  Ti             39     2.297   6.966   2.729   0.000  11.991     0.009
  Ti             40     2.295   6.920   2.740   0.000  11.955     0.045
  Ti             41     2.285   6.969   2.728   0.000  11.982     0.018
  Ti             42     2.312   6.977   2.734   0.000  12.023    -0.023
  Ti             43     2.297   6.973   2.727   0.000  11.996     0.004
  Ti             44     2.312   6.952   2.742   0.000  12.006    -0.006
  Ti             45     2.315   6.946   2.743   0.000  12.003    -0.003
  Ti             46     2.299   6.988   2.726   0.000  12.012    -0.012
  V               1     2.361   6.981   3.731   0.000  13.073    -0.073
  V               2     2.368   6.943   3.737   0.000  13.048    -0.048
==========================================================================

                 Bond                   Population      Length (A)
======================================================================
              Al 5 -- Al 6                   0.32        2.73639
              Al 1 -- Ti 5                   0.23        2.74075
             Ti 16 -- V 1                    0.22        2.74184
             Ti 1  -- V 2                    0.19        2.74468
              Al 1 -- V 1                    0.24        2.75024
              Al 4 -- Ti 40                  0.27        2.75167
             Ti 14 -- Ti 15                  0.13        2.75684
             Ti 34 -- V 2                    0.18        2.76115
             Ti 41 -- V 2                    0.20        2.76446
             Ti 5  -- V 2                    0.16        2.76553
             Ti 16 -- Ti 29                  0.14        2.76575
             Ti 26 -- Ti 39                  0.14        2.76765
             Ti 1  -- Ti 7                   0.13        2.77314
              Al 1 -- Ti 1                   0.21        2.77336
             Ti 20 -- Ti 21                  0.20        2.77350
             Ti 14 -- Ti 31                  0.16        2.77492
              Al 2 -- Ti 22                  0.22        2.77807
             Ti 9  -- Ti 10                  0.19        2.77881
             Ti 1  -- Ti 6                   0.16        2.77937
              Al 4 -- Ti 22                  0.24        2.77943
             Ti 18 -- Ti 19                  0.17        2.77977
             Ti 15 -- Ti 46                  0.15        2.78064
             Ti 11 -- Ti 16                  0.12        2.78128
              Al 2 -- Ti 32                  0.25        2.78256
              Al 5 -- Ti 35                  0.24        2.78339
             Ti 2  -- Ti 3                   0.15        2.78640
             Ti 23 -- Ti 28                  0.16        2.78661
             Ti 20 -- Ti 31                  0.13        2.78667
             Ti 3  -- Ti 36                  0.13        2.78697
              Al 6 -- Ti 46                  0.26        2.78721
              Al 3 -- Ti 41                  0.24        2.78839
             Ti 29 -- Ti 33                  0.12        2.78859
              Al 2 -- Ti 16                  0.24        2.78915
             Ti 12 -- Ti 29                  0.12        2.79124
             Ti 24 -- Ti 25                  0.14        2.79321
             Ti 17 -- Ti 24                  0.14        2.79465
             Ti 23 -- Ti 33                  0.14        2.79550
              Al 4 -- Ti 36                  0.27        2.79670
             Ti 42 -- Ti 43                  0.15        2.79711
              Al 1 -- Ti 23                  0.23        2.80038
             Ti 9  -- Ti 36                  0.19        2.80159
             Ti 40 -- V 1                    0.21        2.80166
             Ti 1  -- Ti 34                  0.18        2.80169
             Ti 35 -- Ti 36                  0.15        2.80263
             Ti 7  -- Ti 23                  0.13        2.80304
             Ti 31 -- Ti 32                  0.13        2.80584
             Ti 21 -- Ti 28                  0.17        2.80632
              Al 1 -- Ti 40                  0.24        2.80648
             Ti 10 -- Ti 14                  0.19        2.80687
             Ti 25 -- Ti 32                  0.15        2.80720
             Ti 5  -- Ti 6                   0.11        2.80734
             Ti 22 -- Ti 33                  0.23        2.80812
             Ti 1  -- V 1                    0.24        2.80862
             Ti 41 -- Ti 46                  0.18        2.80877
             Ti 40 -- V 2                    0.15        2.80896
             Ti 2  -- Ti 17                  0.15        2.80958
             Ti 20 -- Ti 35                  0.16        2.80964
              Al 2 -- Ti 14                  0.20        2.80981
             Ti 45 -- V 2                    0.20        2.80984
             Ti 22 -- Ti 29                  0.15        2.81022
              Al 1 -- Ti 27                  0.24        2.81115
             Ti 19 -- Ti 26                  0.16        2.81221
             Ti 4  -- Ti 13                  0.15        2.81242
             Ti 26 -- Ti 27                  0.17        2.81253
             Ti 12 -- V 1                    0.18        2.81292
             Ti 7  -- Ti 38                  0.15        2.81315
              Al 5 -- Ti 8                   0.21        2.81321
             Ti 12 -- Ti 13                  0.14        2.81322
             Ti 18 -- Ti 34                  0.17        2.81398
              Al 3 -- Ti 1                   0.23        2.81424
             Ti 2  -- Ti 11                  0.17        2.81429
             Ti 10 -- Ti 40                  0.15        2.81481
             Ti 18 -- Ti 29                  0.14        2.81616
             Ti 32 -- Ti 43                  0.16        2.81653
              Al 3 -- Ti 34                  0.21        2.81658
              Al 3 -- Ti 3                   0.21        2.81692
             Ti 7  -- V 1                    0.17        2.81711
             Ti 22 -- Ti 34                  0.12        2.81754
             Ti 37 -- Ti 46                  0.17        2.81769
             Ti 16 -- Ti 33                  0.14        2.81848
             Ti 37 -- Ti 40                  0.14        2.81858
             Ti 27 -- Ti 28                  0.15        2.81906
             Ti 36 -- Ti 43                  0.15        2.81924
             Ti 6  -- Ti 15                  0.15        2.81966
             Ti 33 -- Ti 45                  0.15        2.82034
             Ti 39 -- Ti 44                  0.14        2.82051
              Al 6 -- Ti 44                  0.26        2.82064
             Ti 6  -- Ti 17                  0.19        2.82149
              Al 6 -- Ti 28                  0.23        2.82153
              Al 2 -- Ti 33                  0.24        2.82286
             Ti 45 -- Ti 46                  0.12        2.82447
              Al 1 -- Ti 10                  0.23        2.82576
             Ti 44 -- Ti 45                  0.20        2.82576
             Ti 28 -- Ti 37                  0.14        2.82698
             Ti 22 -- V 2                    0.26        2.82716
             Ti 17 -- Ti 28                  0.15        2.82884
              Al 4 -- V 2                    0.21        2.82902
             Ti 38 -- Ti 39                  0.13        2.82926
             Ti 3  -- Ti 9                   0.14        2.82941
              Al 3 -- Ti 35                  0.22        2.82964
             Ti 4  -- Ti 19                  0.14        2.83028
              Al 5 -- Ti 39                  0.22        2.83038
             Ti 6  -- Ti 11                  0.15        2.83130
             Ti 15 -- Ti 16                  0.15        2.83216
             Ti 11 -- Ti 42                  0.13        2.83250
             Ti 34 -- Ti 38                  0.13        2.83263
             Ti 7  -- Ti 8                   0.15        2.83284
              Al 2 -- Ti 45                  0.22        2.83287
              Al 5 -- Ti 10                  0.26        2.83314
             Ti 4  -- Ti 5                   0.14        2.83323
             Ti 11 -- V 1                    0.27        2.83417
              Al 4 -- Ti 45                  0.25        2.83426
             Ti 27 -- Ti 33                  0.15        2.83483
             Ti 33 -- Ti 41                  0.13        2.83491
             Ti 23 -- V 1                    0.20        2.83503
             Ti 8  -- Ti 38                  0.14        2.83557
             Ti 9  -- Ti 25                  0.13        2.83621
             Ti 17 -- Ti 22                  0.16        2.83686
             Ti 11 -- Ti 37                  0.25        2.83788
             Ti 8  -- Ti 14                  0.14        2.83826
             Ti 30 -- Ti 41                  0.16        2.83983
             Ti 27 -- Ti 32                  0.16        2.84013
             Ti 25 -- Ti 30                  0.12        2.84143
             Ti 4  -- Ti 9                   0.22        2.84164
             Ti 11 -- Ti 12                  0.13        2.84169
              Al 3 -- Ti 43                  0.21        2.84174
             Ti 24 -- Ti 37                  0.15        2.84283
             Ti 29 -- Ti 30                  0.14        2.84291
             Ti 8  -- Ti 12                  0.14        2.84322
             Ti 13 -- Ti 44                  0.14        2.84400
             Ti 10 -- Ti 16                  0.14        2.84428
             Ti 34 -- Ti 40                  0.13        2.84446
              Al 2 -- Ti 20                  0.24        2.84493
             Ti 7  -- Ti 12                  0.19        2.84640
              Al 1 -- Ti 16                  0.24        2.84653
             Ti 13 -- Ti 42                  0.13        2.84775
              Al 4 -- Al 5                   0.23        2.84815
             Ti 29 -- V 1                    0.22        2.84837
             Ti 30 -- Ti 31                  0.13        2.85173
             Ti 34 -- Ti 41                  0.17        2.85190
             Ti 11 -- Ti 46                  0.14        2.85295
              Al 4 -- Ti 20                  0.26        2.85295
              Al 5 -- Ti 44                  0.26        2.85328
             Ti 19 -- Ti 24                  0.13        2.85333
             Ti 23 -- Ti 30                  0.15        2.85455
             Ti 15 -- Ti 21                  0.28        2.85566
             Ti 6  -- Ti 21                  0.15        2.85617
             Ti 4  -- Ti 36                  0.20        2.85648
             Ti 17 -- Ti 29                  0.22        2.85678
             Ti 4  -- Ti 21                  0.14        2.85706
             Ti 21 -- Ti 22                  0.20        2.85707
             Ti 17 -- Ti 18                  0.13        2.85787
             Ti 18 -- Ti 30                  0.20        2.85820
             Ti 35 -- Ti 38                  0.15        2.85988
             Ti 18 -- Ti 31                  0.15        2.85990
             Ti 13 -- Ti 19                  0.24        2.86035
             Ti 12 -- Ti 38                  0.21        2.86062
             Ti 15 -- Ti 44                  0.15        2.86089
             Ti 11 -- Ti 29                  0.21        2.86122
             Ti 1  -- Ti 41                  0.19        2.86148
             Ti 39 -- Ti 42                  0.13        2.86154
             Ti 9  -- Ti 27                  0.16        2.86186
              Al 6 -- Ti 40                  0.24        2.86261
              Al 4 -- Ti 5                   0.24        2.86278
             Ti 5  -- Ti 36                  0.13        2.86309
             Ti 30 -- Ti 43                  0.13        2.86326
             Ti 38 -- V 1                    0.16        2.86345
             Ti 1  -- Ti 23                  0.21        2.86361
             Ti 3  -- Ti 7                   0.15        2.86385
             Ti 41 -- Ti 42                  0.15        2.86391
             Ti 2  -- Ti 42                  0.20        2.86684
             Ti 18 -- Ti 35                  0.16        2.86727
             Ti 2  -- Ti 13                  0.13        2.86860
             Ti 2  -- Ti 19                  0.14        2.86886
             Ti 25 -- Ti 26                  0.12        2.86894
              Al 6 -- Ti 26                  0.23        2.86917
             Ti 14 -- Ti 20                  0.26        2.86939
             Ti 14 -- Ti 44                  0.20        2.86939
             Ti 8  -- Ti 9                   0.12        2.86983
              Al 3 -- Ti 30                  0.25        2.87000
             Ti 23 -- Ti 24                  0.16        2.87059
             Ti 7  -- Ti 25                  0.14        2.87248
             Ti 13 -- Ti 14                  0.16        2.87370
             Ti 3  -- Ti 19                  0.21        2.87394
             Ti 37 -- Ti 42                  0.12        2.87417
             Ti 3  -- Ti 4                   0.13        2.87493
             Ti 17 -- Ti 34                  0.25        2.87513
             Ti 13 -- Ti 31                  0.22        2.87626
             Ti 32 -- Ti 45                  0.16        2.87711
             Ti 16 -- Ti 22                  0.15        2.87728
             Ti 3  -- Ti 43                  0.24        2.87777
             Ti 6  -- Ti 28                  0.21        2.87794
              Al 5 -- Ti 36                  0.24        2.87819
              Al 5 -- Ti 26                  0.24        2.87886
             Ti 3  -- Ti 13                  0.24        2.87900
             Ti 4  -- Ti 15                  0.12        2.87907
             Ti 8  -- Ti 31                  0.22        2.87949
             Ti 6  -- V 2                    0.22        2.88045
              Al 4 -- Al 6                   0.21        2.88206
              Al 2 -- Ti 27                  0.24        2.88249
              Al 2 -- Ti 15                  0.22        2.88257
             Ti 12 -- Ti 31                  0.13        2.88306
              Al 2 -- Ti 10                  0.25        2.88403
             Ti 14 -- Ti 32                  0.19        2.88411
             Ti 9  -- Ti 32                  0.24        2.88433
              Al 1 -- Ti 6                   0.22        2.88454
             Ti 5  -- Ti 9                   0.10        2.88636
             Ti 8  -- Ti 39                  0.24        2.88698
             Ti 8  -- Ti 35                  0.23        2.88708
             Ti 11 -- Ti 41                  0.26        2.88738
             Ti 5  -- Ti 10                  0.19        2.88740
              Al 3 -- Ti 18                  0.24        2.88785
             Ti 9  -- Ti 26                  0.29        2.88798
              Al 3 -- Ti 42                  0.23        2.88978
             Ti 24 -- Ti 39                  0.12        2.89004
              Al 3 -- Ti 2                   0.25        2.89037
             Ti 5  -- Ti 45                  0.19        2.89261
             Ti 36 -- Ti 45                  0.21        2.89292
             Ti 21 -- Ti 26                  0.14        2.89644
             Ti 8  -- Ti 13                  0.26        2.89678
             Ti 35 -- Ti 39                  0.20        2.89714
             Ti 37 -- Ti 38                  0.12        2.89745
              Al 1 -- V 2                    0.23        2.89801
             Ti 30 -- Ti 42                  0.25        2.89825
             Ti 10 -- Ti 27                  0.18        2.90007
              Al 6 -- Ti 21                  0.27        2.90029
             Ti 35 -- Ti 43                  0.23        2.90090
             Ti 4  -- Ti 14                  0.19        2.90177
             Ti 26 -- Ti 32                  0.26        2.90300
             Ti 1  -- Ti 2                   0.16        2.90341
              Al 3 -- Ti 38                  0.24        2.90384
             Ti 29 -- Ti 34                  0.20        2.90436
             Ti 3  -- Ti 35                  0.21        2.90478
              Al 3 -- Ti 7                   0.23        2.90572
             Ti 4  -- Ti 26                  0.23        2.90635
             Ti 25 -- Ti 31                  0.22        2.90755
             Ti 33 -- Ti 46                  0.28        2.90827
              Al 5 -- Ti 20                  0.26        2.90943
             Ti 4  -- Ti 44                  0.23        2.90984
             Ti 20 -- Ti 32                  0.25        2.90990
              Al 1 -- Ti 28                  0.21        2.91061
             Ti 10 -- Ti 15                  0.24        2.91073
              Al 2 -- Ti 21                  0.22        2.91082
              Al 6 -- Ti 27                  0.25        2.91228
             Ti 19 -- Ti 25                  0.23        2.91266
              Al 4 -- Ti 21                  0.25        2.91405
             Ti 37 -- V 1                    0.27        2.91590
              Al 1 -- Ti 33                  0.23        2.91656
             Ti 25 -- Ti 39                  0.22        2.91676
             Ti 27 -- Ti 45                  0.15        2.91745
              Al 4 -- Ti 10                  0.27        2.91789
             Ti 19 -- Ti 20                  0.14        2.91834
             Ti 12 -- Ti 42                  0.21        2.91953
             Ti 22 -- Ti 40                  0.20        2.91959
             Ti 19 -- Ti 31                  0.23        2.92188
             Ti 12 -- Ti 30                  0.22        2.92270
             Ti 28 -- Ti 46                  0.25        2.92314
             Ti 43 -- Ti 44                  0.14        2.92373
             Ti 24 -- Ti 42                  0.27        2.92385
             Ti 33 -- V 2                    0.31        2.92498
             Ti 23 -- Ti 29                  0.22        2.92508
             Ti 26 -- Ti 44                  0.24        2.92579
             Ti 46 -- V 2                    0.22        2.92664
             Ti 17 -- Ti 37                  0.26        2.92757
             Ti 20 -- Ti 26                  0.22        2.92759
              Al 6 -- Ti 10                  0.25        2.92788
             Ti 12 -- Ti 18                  0.17        2.92886
             Ti 25 -- Ti 43                  0.24        2.92970
             Ti 31 -- Ti 43                  0.23        2.93097
             Ti 5  -- Ti 27                  0.19        2.93189
             Ti 2  -- Ti 12                  0.20        2.93200
             Ti 3  -- Ti 25                  0.23        2.93290
             Ti 13 -- Ti 43                  0.26        2.93302
             Ti 28 -- Ti 33                  0.25        2.93310
             Ti 20 -- Ti 36                  0.23        2.93461
             Ti 18 -- Ti 24                  0.23        2.93552
             Ti 13 -- Ti 39                  0.25        2.93553
             Ti 8  -- Ti 25                  0.23        2.93707
              Al 2 -- Al 4                   0.17        2.93769
             Ti 6  -- Ti 46                  0.21        2.94070
             Ti 39 -- Ti 43                  0.24        2.94130
             Ti 16 -- Ti 40                  0.15        2.94247
             Ti 34 -- Ti 37                  0.24        2.94275
             Ti 19 -- Ti 39                  0.24        2.94379
             Ti 24 -- Ti 38                  0.23        2.94387
             Ti 21 -- Ti 27                  0.25        2.94578
             Ti 5  -- Ti 15                  0.21        2.94582
             Ti 38 -- Ti 42                  0.28        2.94620
             Ti 24 -- Ti 30                  0.27        2.94642
             Ti 37 -- Ti 41                  0.20        2.94698
             Ti 18 -- Ti 38                  0.21        2.94965
             Ti 2  -- Ti 24                  0.24        2.94969
             Ti 4  -- Ti 20                  0.19        2.95128
             Ti 17 -- Ti 23                  0.24        2.95942
              Al 5 -- Ti 14                  0.23        2.96093
             Ti 2  -- Ti 7                   0.22        2.96152
             Ti 2  -- Ti 18                  0.25        2.96270
             Ti 19 -- Ti 35                  0.26        2.96302
             Ti 5  -- Ti 21                  0.26        2.96372
             Ti 7  -- Ti 30                  0.29        2.96430
             Ti 3  -- Ti 8                   0.25        2.96499
             Ti 31 -- Ti 35                  0.22        2.97254
              Al 5 -- Ti 9                   0.23        2.97343
             Ti 11 -- Ti 17                  0.25        2.97418
             Ti 7  -- Ti 24                  0.21        2.98268
              Al 6 -- Ti 15                  0.22        2.98346
             Ti 34 -- V 1                    0.25        2.98836
             Ti 32 -- Ti 44                  0.29        2.98880
             Ti 23 -- Ti 37                  0.22        2.98900
             Ti 29 -- Ti 41                  0.21        2.99472
             Ti 9  -- Ti 14                  0.23        2.99673
             Ti 22 -- Ti 28                  0.23        2.99974
======================================================================

 
 A BibTeX formatted list of references used in this run has been written to 
 sqs_hcp_sc3x3x3_Ti46Al6V2_frame0_15.bib
 
Initialisation time =     19.46 s
Calculation time    =   2066.57 s
Finalisation time   =      0.34 s
Total time          =   2086.38 s
Peak Memory Use     = 1887744 kB
 
Overall parallel efficiency rating: Mediocre (56%)
 
Data was distributed by:-
G-vector (24-way); efficiency rating: Mediocre (57%)
k-point (14-way); efficiency rating: Excellent (97%)
