 +-------------------------------------------------+
 |                                                 |
 |      CCC   AA    SSS  TTTTT  EEEEE  PPPP        |
 |     C     A  A  S       T    E      P   P       |
 |     C     AAAA   SS     T    EEE    PPPP        |
 |     C     A  A     S    T    E      P           |
 |      CCC  A  A  SSS     T    EEEEE  P           |
 |                                                 |
 +-------------------------------------------------+
 |                                                 |
 | Welcome to Academic Release CASTEP version 24.1 |
 | Ab Initio Total Energy Program                  |
 |                                                 |
 | Authors:                                        |
 | M. Segall, M. Probert, C. Pickard, P. Hasnip,   |
 | S. Clark, K. Refson, J. R. Yates,               |
 | A. Bartok-Partay, M. Payne                      |
 |                                                 |
 | Contributors:                                   |
 | P. Lindan, P. Haynes, J. White, V. Milman,      |
 | N. Govind, M. Gibson, P. Tulip, V. Cocula,      |
 | B. Montanari, D. Quigley, M. Glover,            |
 | L. Bernasconi, A. Perlov, M. Plummer,           |
 | E. McNellis, J. Meyer, J. Gale, D. Jochym       |
 | J. Aarons, B. Walker, R. Gillen, D. Jones       |
 | T. Green, I. J. Bush, C. J. Armstrong,          |
 | E. J. Higgins, E. L. Brown, M. S. McFly,        |
 | J. Wilkins, B-C. Shih, P. J. P. Byrne,          |
 | R. J. Maurer, J. C. Womack, J. Dziedzic,        |
 | L. LeBlanc, T. K. Stenczel, J. Kermode,         |
 | S. Sturniolo, B. Shi, B. Durham, M. Evans,      |
 | M. J. Smith, A. Tamerus, Z. Hawkhead,           |
 | V. Ravindran, T. Hollins, S. A. Joyce,          |
 | R. T. Strong, A. M. Reilly                      |
 |                                                 |
 | Copyright (c) 2000 - 2023                       |
 |                                                 |
 |     Distributed under license from Cambridge    |
 |     Enterprise for academic use only.           |
 |                                                 |
 | Please cite                                     |
 |                                                 |
 |     "First principles methods using CASTEP"     |
 |                                                 |
 |         Zeitschrift fuer Kristallographie       |
 |           220(5-6) pp. 567-570 (2005)           |
 |                                                 |
 | S. J. Clark, M. D. Segall, C. J. Pickard,       |
 | P. J. Hasnip, M. J. Probert, K. Refson,         |
 | M. C. Payne                                     |
 |                                                 |
 |       in all publications arising from          |
 |              your use of CASTEP                 |
 |                                                 |
 +-------------------------------------------------+
 |                                                 |
 |              http://www.castep.org              |
 |                                                 |
 +-------------------------------------------------+



 Compiled for linux_x86_64_gfortran10 on Tue, 02 May 2023 15:31:46 +0100
 from code version db08e394c+  default  Mon May 1 16:40:39 2023 +0100
 Compiler: GNU Fortran 10.2.0; Optimisation: fast
 Comms   : Open MPI v4.0.5
 MATHLIBS: openblas (LAPACK version 3.9.0)
 FFT Lib : fftw3 version fftw-3.3.8-sse2-avx-avx2-avx2_128
 Fundamental constants values: CODATA 2018

 Run started: Wed, 07 Feb 2024 19:01:23 +0000
 Info: number of up-spin electrons is not equal to the
       number of down-spins but spin_polarized=false
     - consider setting spin_polarized=true.

 Atomic calculation performed for Al: 1s2 2s2 2p6 3s2 3p1

 Converged in 54 iterations to an ae energy of -6603.783 eV

   ============================================================                
   | Pseudopotential Report - Date of generation  7-02-2024   |                
   ------------------------------------------------------------                
   | Element: Al Ionic charge:  3.00 Level of theory: PBE     |                
   | Atomic Solver: Koelling-Harmon                           |                
   |                                                          |                
   |               Reference Electronic Structure             |                
   |         Orbital         Occupation         Energy        |                
   |            3s              2.000           -0.285        |                
   |            3p              1.000           -0.100        |                
   |                                                          |                
   |                 Pseudopotential Definition               |                
   |        Beta     l      e      Rc     scheme   norm       |                
   |          1      0   -0.285   2.192     qc      0         |                
   |          2      0    0.250   2.192     qc      0         |                
   |          3      1   -0.100   2.192     qc      0         |                
   |          4      1    0.250   2.192     qc      0         |                
   |          5      2    0.000   2.000     qc      0         |                
   |          6      2    0.250   2.000     qc      0         |                
   |         loc     3    0.000   2.192     pn      0         |                
   |                                                          |                
   | Augmentation charge Rinner = 1.398                       |                
   | Partial core correction Rc = 1.398                       |                
   ------------------------------------------------------------                
   | "3|2.2|2.2|1.4|4|5|5|30:31:32U2U2"                       |                
   ------------------------------------------------------------                
   |      Author: Chris J. Pickard, Cambridge University      |                
   ============================================================                

 Atomic calculation performed for Ti: 1s2 2s2 2p6 3s2 3p6 3d2 4s2

 Converged in 79 iterations to an ae energy of -23226.658 eV

   ============================================================                
   | Pseudopotential Report - Date of generation  7-02-2024   |                
   ------------------------------------------------------------                
   | Element: Ti Ionic charge: 12.00 Level of theory: PBE     |                
   | Atomic Solver: Koelling-Harmon                           |                
   |                                                          |                
   |               Reference Electronic Structure             |                
   |         Orbital         Occupation         Energy        |                
   |            3s              2.000           -2.302        |                
   |            3p              6.000           -1.428        |                
   |            4s              2.000           -0.164        |                
   |            3d              2.000           -0.157        |                
   |                                                          |                
   |                 Pseudopotential Definition               |                
   |        Beta     l      e      Rc     scheme   norm       |                
   |          1      0   -2.302   1.793     qc      0         |                
   |          2      0   -0.164   1.793     qc      0         |                
   |          3      0    0.250   1.793     qc      0         |                
   |          4      1   -1.428   1.793     qc      0         |                
   |          5      1    0.250   1.793     qc      0         |                
   |          6      2   -0.157   1.793     qc      0         |                
   |          7      2    0.250   1.793     qc      0         |                
   |         loc     3    0.000   1.793     pn      0         |                
   |                                                          |                
   | Augmentation charge Rinner = 1.263                       |                
   | Partial core correction Rc = 1.263                       |                
   ------------------------------------------------------------                
   | "3|1.8|9|10|11|30U:40:31:32(qc=5.5)"                     |                
   ------------------------------------------------------------                
   |      Author: Chris J. Pickard, Cambridge University      |                
   ============================================================                

 Atomic calculation performed for V: 1s2 2s2 2p6 3s2 3p6 3d3 4s2

 Converged in 81 iterations to an ae energy of -25823.733 eV

   ============================================================                
   | Pseudopotential Report - Date of generation  7-02-2024   |                
   ------------------------------------------------------------                
   | Element: V Ionic charge: 13.00 Level of theory: PBE      |                
   | Atomic Solver: Koelling-Harmon                           |                
   |                                                          |                
   |               Reference Electronic Structure             |                
   |         Orbital         Occupation         Energy        |                
   |            3s              2.000           -2.581        |                
   |            3p              6.000           -1.618        |                
   |            3d              3.000           -0.190        |                
   |            4s              2.000           -0.173        |                
   |                                                          |                
   |                 Pseudopotential Definition               |                
   |        Beta     l      e      Rc     scheme   norm       |                
   |          1      0   -2.581   1.803     qc      0         |                
   |          2      0   -0.173   1.803     qc      0         |                
   |          3      0    0.250   1.803     qc      0         |                
   |          4      1   -1.618   1.803     qc      0         |                
   |          5      1    0.250   1.803     qc      0         |                
   |          6      2   -0.190   1.803     qc      0         |                
   |          7      2    0.250   1.803     qc      0         |                
   |         loc     3    0.000   1.803     pn      0         |                
   |                                                          |                
   | Augmentation charge Rinner = 0.600                       |                
   | Partial core correction Rc = 0.600                       |                
   ------------------------------------------------------------                
   | "3|1.8|1.8|0.6|12|14|16|30U:40:31:32(qc=7)"              |                
   ------------------------------------------------------------                
   |      Author: Chris J. Pickard, Cambridge University      |                
   ============================================================                

 Pseudo atomic calculation performed for Al 3s2 3p1

 Converged in 15 iterations to a total energy of -107.1308 eV

 Pseudo atomic calculation performed for Ti 3s2 3p6 3d2 4s2

 Converged in 34 iterations to a total energy of -1587.0236 eV

 Pseudo atomic calculation performed for V 3s2 3p6 3d3 4s2

 Converged in 35 iterations to a total energy of -2065.7874 eV
 Calculation parallelised over 240 processes.
 Data is distributed by G-vector(16-way) and k-point(15-way)

 ************************************ Title ************************************
 

 ***************************** General Parameters ******************************
  
 output verbosity                               : normal  (1)
 write checkpoint data to                       : sqs_hex_sc3x3x3_Ti70Al8V3_frame0_09.check
 type of calculation                            : single point energy
 stress calculation                             : on
 density difference calculation                 : off
 electron localisation func (ELF) calculation   : off
 Hirshfeld analysis                             : off
 polarisation (Berry phase) analysis            : off
 molecular orbital projected DOS                : off
 deltaSCF calculation                           : off
 unlimited duration calculation
 timing information                             : on
 memory usage estimate                          : on
 write extra output files                       : on
 write final potential to formatted file        : off
 write final density to formatted file          : off
 write BibTeX reference list                    : on
 write OTFG pseudopotential files               : on
 write electrostatic potential file             : on
 write bands file                               : on
 checkpoint writing                             : off
  
 output         length unit                     : A
 output           mass unit                     : amu
 output           time unit                     : ps
 output         charge unit                     : e
 output           spin unit                     : hbar/2
 output         energy unit                     : eV
 output          force unit                     : eV/A
 output       velocity unit                     : A/ps
 output       pressure unit                     : GPa
 output     inv_length unit                     : 1/A
 output      frequency unit                     : cm-1
 output force constant unit                     : eV/A**2
 output         volume unit                     : A**3
 output   IR intensity unit                     : (D/A)**2/amu
 output         dipole unit                     : D
 output         efield unit                     : eV/A/e
 output        entropy unit                     : J/mol/K
 output    efield chi2 unit                     : pm/V
  
 wavefunctions paging                           : none
 random number generator seed                   :  190123077
 data distribution                              : k-point only
 optimization strategy                          : maximize speed(+++)

 *********************** Exchange-Correlation Parameters ***********************
  
 using functional                               : Perdew Burke Ernzerhof
 relativistic treatment                         : Koelling-Harmon
 DFT+D: Semi-empirical dispersion correction    : off

 ************************* Pseudopotential Parameters **************************
  
 pseudopotential representation                 : reciprocal space
 <beta|phi> representation                      : reciprocal space
 spin-orbit coupling                            : off

 **************************** Basis Set Parameters *****************************
  
 plane wave basis set cut-off                   :   800.0000   eV
 size of standard grid                          :     2.0000
 size of   fine   gmax                          :    28.9810   1/A
 largest prime factor in FFT                    :          5
 finite basis set correction                    : automatic
 number of sample energies                      :          3
           sample  spacing                      :     5.0000   eV

 **************************** Electronic Parameters ****************************
  
 number of  electrons                           :  903.0    
 net charge of system                           :  0.000    
 treating system as non-spin-polarized
 number of bands                                :        487

 ********************* Electronic Minimization Parameters **********************
  
 Method: Treating system as metallic with density mixing treatment of electrons,
         and number of  SD  steps               :          1
         and number of  CG  steps               :          4
  
 total energy / atom convergence tol.           : 0.1000E-05   eV
 eigen-energy convergence tolerance             : 0.1663E-06   eV
 max force / atom convergence tol.              : ignored
 convergence tolerance window                   :          3   cycles
 max. number of SCF cycles                      :         30
 number of fixed-spin iterations                :         10
 smearing scheme                                : Gaussian
 smearing width                                 : 0.5000E-01   eV
 Fermi energy convergence tolerance             : 0.2721E-13   eV
 periodic dipole correction                     : NONE

 ************************** Density Mixing Parameters **************************
  
 density-mixing scheme                          : Pulay
 max. length of mixing history                  :         20
 charge density mixing amplitude                : 0.8000    
 cut-off energy for mixing                      :  800.0       eV
 charge density mixing g-vector                 :  1.500       1/A

 *********************** Population Analysis Parameters ************************
  
 Population analysis with cutoff                :  3.000       A
 Population analysis output                     : summary and pdos components

 ******************************* Developer Code ********************************
  
 PARALLEL: kpoint=15 : ENDPARALLEL
 no_improve_wvfn

 *******************************************************************************
  

                           -------------------------------
                                      Unit Cell
                           -------------------------------
        Real Lattice(A)                      Reciprocal Lattice(1/A)
     6.9718820   -11.8388750    -0.1183300        0.450608994  -0.265388972   0.002656112
     6.9718820    11.8388760     0.1183690        0.450608971   0.265388946  -0.002653450
    -0.0000250     0.0846750     8.4646560       -0.000002076  -0.007421129   0.742359015

                       Lattice parameters(A)       Cell Angles
                    a =     13.739727          alpha =   89.012621
                    b =     13.739728          beta  =   90.987388
                    c =      8.465080          gamma =  119.015070

                       Current cell volume =          1397.192863       A**3
                                   density =             2.662028   AMU/A**3
                                           =             4.420402     g/cm^3

                           -------------------------------
                                     Cell Contents
                           -------------------------------
                         Total number of ions in cell =   81
                      Total number of species in cell =    3
                        Max number of any one species =   70

            xxxxxxxxxxxxxxxxxxxxxxxxxxxxxxxxxxxxxxxxxxxxxxxxxxxxxxxxxxxx
            x  Element    Atom        Fractional coordinates of atoms  x
            x            Number           u          v          w      x
            x----------------------------------------------------------x
            x  Al           1        -0.000247  -0.001326   0.330733   x 
            x  Al           2         0.561171   0.117172   0.794242   x 
            x  Al           3         0.552346   0.444073   0.652557   x 
            x  Al           4         0.560953   0.442024   0.973541   x 
            x  Al           5         0.336101   0.664673  -0.004848   x 
            x  Al           6         0.557634   0.777502   0.155799   x 
            x  Al           7         0.450688   0.900541   0.839547   x 
            x  Al           8         0.779252   0.889231   0.832163   x 
            x  Ti           1        -0.001779  -0.002587  -0.003597   x 
            x  Ti           2         0.108549   0.219909   0.163498   x 
            x  Ti           3         0.222498   0.110493   0.162162   x 
            x  Ti           4         0.106828   0.220019   0.497345   x 
            x  Ti           5         0.221687   0.110436   0.495743   x 
            x  Ti           6        -0.001662  -0.002396   0.665211   x 
            x  Ti           7         0.108640   0.218419   0.830768   x 
            x  Ti           8         0.224869   0.111682   0.829381   x 
            x  Ti           9         0.003632   0.336991  -0.002433   x 
            x  Ti          10         0.115427   0.556488   0.162964   x 
            x  Ti          11         0.225239   0.444777   0.164822   x 
            x  Ti          12         0.002551   0.334690   0.332524   x 
            x  Ti          13         0.112660   0.557161   0.495839   x 
            x  Ti          14         0.223460   0.446833   0.499970   x 
            x  Ti          15        -0.000455   0.335350   0.666586   x 
            x  Ti          16         0.109243   0.556232   0.829239   x 
            x  Ti          17         0.221769   0.444388   0.831850   x 
            x  Ti          18         0.000365   0.665542  -0.004249   x 
            x  Ti          19         0.112536   0.889715   0.162442   x 
            x  Ti          20         0.217888   0.775277   0.164047   x 
            x  Ti          21        -0.005464   0.664090   0.328735   x 
            x  Ti          22         0.113142   0.888943   0.494455   x 
            x  Ti          23         0.221125   0.776339   0.492681   x 
            x  Ti          24        -0.004545   0.664505   0.663284   x 
            x  Ti          25         0.109696   0.888687   0.827867   x 
            x  Ti          26         0.224622   0.779543   0.828082   x 
            x  Ti          27         0.333992   0.000309  -0.006320   x 
            x  Ti          28         0.451283   0.234852   0.159903   x 
            x  Ti          29         0.556528   0.110575   0.142310   x 
            x  Ti          30         0.336418   0.005066   0.326601   x 
            x  Ti          31         0.452068   0.236456   0.487518   x 
            x  Ti          32         0.334858   0.002202   0.659143   x 
            x  Ti          33         0.451035   0.232520   0.825347   x 
            x  Ti          34         0.325672   0.330257  -0.001417   x 
            x  Ti          35         0.451406   0.548786   0.155394   x 
            x  Ti          36         0.558241   0.447419   0.310247   x 
            x  Ti          37         0.320581   0.326511   0.328374   x 
            x  Ti          38         0.449629   0.546337   0.489433   x 
            x  Ti          39         0.321492   0.327665   0.659526   x 
            x  Ti          40         0.449650   0.548696   0.821232   x 
            x  Ti          41         0.439522   0.885989   0.165315   x 
            x  Ti          42         0.335897   0.666633   0.329957   x 
            x  Ti          43         0.446670   0.896220   0.507807   x 
            x  Ti          44         0.552530   0.775180   0.482160   x 
            x  Ti          45         0.337370   0.669584   0.661591   x 
            x  Ti          46         0.554897   0.777830   0.828963   x 
            x  Ti          47         0.667139  -0.002828  -0.004772   x 
            x  Ti          48         0.780331   0.221598   0.168313   x 
            x  Ti          49         0.888455   0.112281   0.165778   x 
            x  Ti          50         0.662668  -0.004470   0.329432   x 
            x  Ti          51         0.770173   0.217601   0.500950   x 
            x  Ti          52         0.886936   0.114703   0.494753   x 
            x  Ti          53         0.667112  -0.005315   0.663059   x 
            x  Ti          54         0.782897   0.225112   0.839423   x 
            x  Ti          55         0.889225   0.112704   0.830038   x 
            x  Ti          56         0.769794   0.544721   0.135186   x 
            x  Ti          57         0.892755   0.443330   0.164231   x 
            x  Ti          58         0.671932   0.327119   0.321028   x 
            x  Ti          59         0.762578   0.547571   0.485135   x 
            x  Ti          60         0.888702   0.444169   0.500467   x 
            x  Ti          61         0.669707   0.333575   0.663686   x 
            x  Ti          62         0.877221   0.448702   0.837333   x 
            x  Ti          63         0.671184   0.674149  -0.005626   x 
            x  Ti          64         0.782764   0.892879   0.161762   x 
            x  Ti          65         0.888461   0.774609   0.169204   x 
            x  Ti          66         0.675867   0.682590   0.325152   x 
            x  Ti          67         0.781058   0.892616   0.504270   x 
            x  Ti          68         0.889891   0.775228   0.499151   x 
            x  Ti          69         0.670677   0.675987   0.657990   x 
            x  Ti          70         0.885427   0.769594   0.834433   x 
            x  V            1         0.552039   0.117615   0.474329   x 
            x  V            2         0.663753   0.316479  -0.004301   x 
            x  V            3         0.761099   0.553177   0.803565   x 
            xxxxxxxxxxxxxxxxxxxxxxxxxxxxxxxxxxxxxxxxxxxxxxxxxxxxxxxxxxxx


                         No user defined ionic velocities

                           -------------------------------
                                   Details of Species
                           -------------------------------

                               Mass of species in AMU
                                    Al   26.9815400
                                    Ti   47.8670000
                                    V   50.9415000

                          Electric Quadrupole Moment (Barn)
                                    Al    0.1466000 Isotope 27
                                    Ti    0.3020000 Isotope 47
                                    V   -0.0520000 Isotope 51

                          Files used for pseudopotentials:
                                    Al 3|2.2|2.2|1.4|4|5|5|30:31:32U2U2
                                    Ti 3|1.8|9|10|11|30U:40:31:32(qc=5.5)
                                    V 3|1.8|1.8|0.6|12|14|16|30U:40:31:32(qc=7)

                           -------------------------------
                              k-Points For BZ Sampling
                           -------------------------------
                       MP grid size for SCF calculation is  5  5  6
                            with an offset of   0.000  0.000  0.000
                       Number of kpoints used =            75

                           -------------------------------
                               Symmetry and Constraints
                           -------------------------------

                      Maximum deviation from symmetry =  0.00000         ANG

                      Number of symmetry operations   =           1
                      Number of ionic constraints     =           3
                      Point group of crystal =     1: C1, 1, 1
                      Space group of crystal =     1: P1, P 1

             Set iprint > 1 for details on symmetry rotations/translations

                         Centre of mass is constrained
             Set iprint > 1 for details of linear ionic constraints

                         Number of cell constraints= 0
                         Cell constraints are:  1 2 3 4 5 6

                         External pressure/stress (GPa)
                          0.00000   0.00000   0.00000
                                    0.00000   0.00000
                                              0.00000
 
+---------------- MEMORY AND SCRATCH DISK ESTIMATES PER PROCESS --------------+
|                                                     Memory          Disk    |
| Baseline code, static data and system overhead      591.0 MB         0.0 MB |
| BLAS internal memory storage                          0.0 MB         0.0 MB |
| Model and support data                              932.4 MB         0.0 MB |
| Electronic energy minimisation requirements         448.9 MB         0.0 MB |
| Force calculation requirements                       15.9 MB         0.0 MB |
| Stress calculation requirements                      17.2 MB         0.0 MB |
|                                               ----------------------------- |
| Approx. total storage required per process         1972.2 MB         0.0 MB |
|                                                                             |
| Requirements will fluctuate during execution and may exceed these estimates |
+-----------------------------------------------------------------------------+
Calculating finite basis set correction with  3 cut-off energies.
Calculating total energy with cut-off of  790.000 eV.
------------------------------------------------------------------------ <-- SCF
SCF loop      Energy           Fermi           Energy gain       Timer   <-- SCF
                               energy          per atom          (sec)   <-- SCF
------------------------------------------------------------------------ <-- SCF
Initial  -1.06782023E+005  0.00000000E+000                        34.55  <-- SCF
      1  -1.15673286E+005  1.16400438E+001   1.09768683E+002     226.95  <-- SCF
      2  -1.18523299E+005  9.00437222E+000   3.51853399E+001     385.88  <-- SCF
      3  -1.18685689E+005  8.77328252E+000   2.00481635E+000     549.37  <-- SCF
      4  -1.18708051E+005  7.94180058E+000   2.76075151E-001     742.60  <-- SCF
      5  -1.18694975E+005  8.16488741E+000  -1.61427698E-001     942.45  <-- SCF
      6  -1.18687378E+005  8.33019323E+000  -9.37962103E-002    1131.04  <-- SCF
      7  -1.18682541E+005  8.34653562E+000  -5.97099148E-002    1328.95  <-- SCF
      8  -1.18683899E+005  8.29284541E+000   1.67663442E-002    1520.19  <-- SCF
      9  -1.18682473E+005  8.29338741E+000  -1.76016937E-002    1699.24  <-- SCF
     10  -1.18682246E+005  8.27688887E+000  -2.80424079E-003    1885.31  <-- SCF
     11  -1.18682344E+005  8.27110647E+000   1.20246165E-003    2071.47  <-- SCF
     12  -1.18682243E+005  8.26900351E+000  -1.24156636E-003    2247.48  <-- SCF
     13  -1.18682224E+005  8.26921359E+000  -2.29961597E-004    2431.71  <-- SCF
     14  -1.18682226E+005  8.26971490E+000   1.70772588E-005    2614.07  <-- SCF
     15  -1.18682223E+005  8.26967391E+000  -3.54615822E-005    2771.91  <-- SCF
     16  -1.18682223E+005  8.26968770E+000   5.27007049E-006    2929.54  <-- SCF
     17  -1.18682223E+005  8.26980244E+000  -4.87809617E-006    3072.17  <-- SCF
     18  -1.18682223E+005  8.26979499E+000   2.08151100E-008    3179.56  <-- SCF
     19  -1.18682223E+005  8.26978843E+000  -9.68287901E-008    3286.49  <-- SCF
------------------------------------------------------------------------ <-- SCF
 
Final energy, E             =  -118682.1091020     eV
Final free energy (E-TS)    =  -118682.2230147     eV
(energies not corrected for finite basis set)
 
NB est. 0K energy (E-0.5TS)      =  -118682.1660583     eV
 
Calculating total energy with cut-off of  795.000 eV.
------------------------------------------------------------------------ <-- SCF
SCF loop      Energy           Fermi           Energy gain       Timer   <-- SCF
                               energy          per atom          (sec)   <-- SCF
------------------------------------------------------------------------ <-- SCF
Initial  -1.18682109E+005  0.00000000E+000                      3317.39  <-- SCF
      1  -1.18682226E+005  8.26985435E+000   1.44394503E-003    3461.87  <-- SCF
      2  -1.18682226E+005  8.26985301E+000   4.02941953E-006    3611.37  <-- SCF
      3  -1.18682281E+005  8.26905474E+000   6.74331200E-004    3793.48  <-- SCF
      4  -1.18682225E+005  8.26971505E+000  -6.87994076E-004    3969.88  <-- SCF
      5  -1.18682224E+005  8.26989167E+000  -1.18733597E-005    4135.75  <-- SCF
      6  -1.18682225E+005  8.26975440E+000   3.41170182E-006    4283.52  <-- SCF
      7  -1.18682224E+005  8.26986415E+000  -7.09815540E-007    4396.18  <-- SCF
      8  -1.18682224E+005  8.26976973E+000  -3.07643880E-007    4502.55  <-- SCF
      9  -1.18682224E+005  8.26975651E+000  -1.00427422E-008    4607.48  <-- SCF
------------------------------------------------------------------------ <-- SCF
 
Final energy, E             =  -118682.1105508     eV
Final free energy (E-TS)    =  -118682.2244517     eV
(energies not corrected for finite basis set)
 
NB est. 0K energy (E-0.5TS)      =  -118682.1675013     eV
 
Calculating total energy with cut-off of  800.000 eV.
------------------------------------------------------------------------ <-- SCF
SCF loop      Energy           Fermi           Energy gain       Timer   <-- SCF
                               energy          per atom          (sec)   <-- SCF
------------------------------------------------------------------------ <-- SCF
Initial  -1.18682110E+005  0.00000000E+000                      4637.87  <-- SCF
      1  -1.18682235E+005  8.26956232E+000   1.54099187E-003    4806.74  <-- SCF
      2  -1.18682235E+005  8.26955888E+000   3.71278793E-006    4953.97  <-- SCF
      3  -1.18682476E+005  8.26876385E+000   2.96753047E-003    5138.68  <-- SCF
      4  -1.18682224E+005  8.27176909E+000  -3.11110931E-003    5317.96  <-- SCF
      5  -1.18682225E+005  8.26982944E+000   1.97805451E-005    5485.89  <-- SCF
      6  -1.18682226E+005  8.26985959E+000   1.24997794E-005    5651.63  <-- SCF
      7  -1.18682226E+005  8.26967098E+000  -5.22099307E-006    5802.55  <-- SCF
      8  -1.18682226E+005  8.26970811E+000  -1.98363911E-006    5920.51  <-- SCF
      9  -1.18682226E+005  8.26974819E+000  -1.56874116E-007    6029.54  <-- SCF
     10  -1.18682226E+005  8.26978299E+000  -2.03510889E-007    6135.96  <-- SCF
------------------------------------------------------------------------ <-- SCF
 
Final energy, E             =  -118682.1118881     eV
Final free energy (E-TS)    =  -118682.2258043     eV
(energies not corrected for finite basis set)
 
NB est. 0K energy (E-0.5TS)      =  -118682.1688462     eV
 
 For future reference: finite basis dEtot/dlog(Ecut) =      -0.221480eV
 Total energy corrected for finite basis set = -118682.225802 eV

 ************************** Forces **************************
 *                                                          *
 *               Cartesian components (eV/A)                *
 * -------------------------------------------------------- *
 *                         x            y            z      *
 *                                                          *
 * Al              1      0.01569      0.03432      0.00506 *
 * Al              2     -0.17454     -0.11556      0.11108 *
 * Al              3      0.08520     -0.00003     -0.01636 *
 * Al              4      0.01816      0.03799      0.01087 *
 * Al              5     -0.05897      0.01589     -0.04570 *
 * Al              6     -0.02993     -0.02979     -0.01530 *
 * Al              7     -0.11164     -0.05094      0.10515 *
 * Al              8      0.01208      0.12293      0.05340 *
 * Ti              1      0.06977     -0.06482      0.04126 *
 * Ti              2     -0.06603      0.03558      0.02252 *
 * Ti              3      0.07563     -0.03548     -0.02248 *
 * Ti              4     -0.04660      0.00839     -0.02405 *
 * Ti              5      0.01848      0.01813     -0.03412 *
 * Ti              6      0.03527      0.01589     -0.04021 *
 * Ti              7     -0.06040      0.06985     -0.00046 *
 * Ti              8      0.09019      0.01117     -0.01450 *
 * Ti              9      0.05588     -0.03571     -0.05218 *
 * Ti             10     -0.01940      0.07213      0.02295 *
 * Ti             11      0.05379     -0.06486     -0.04848 *
 * Ti             12     -0.06294      0.01621     -0.01449 *
 * Ti             13     -0.01934      0.00670      0.00351 *
 * Ti             14      0.05790     -0.03886     -0.08422 *
 * Ti             15     -0.01175     -0.03566      0.04843 *
 * Ti             16      0.03350      0.04862      0.01106 *
 * Ti             17      0.01433     -0.01181     -0.07550 *
 * Ti             18     -0.09731      0.00536     -0.09432 *
 * Ti             19     -0.07582      0.04397      0.03285 *
 * Ti             20      0.10557     -0.03115     -0.00434 *
 * Ti             21      0.04479     -0.05311      0.00531 *
 * Ti             22      0.00332      0.01276     -0.01795 *
 * Ti             23      0.02762     -0.01561     -0.02796 *
 * Ti             24     -0.00040     -0.01397      0.09470 *
 * Ti             25     -0.02721     -0.08401     -0.00869 *
 * Ti             26      0.09448     -0.10545      0.07236 *
 * Ti             27     -0.12129      0.05436      0.07768 *
 * Ti             28      0.03613     -0.09472      0.03941 *
 * Ti             29      0.02936      0.08633      0.10978 *
 * Ti             30     -0.01209      0.04796     -0.01114 *
 * Ti             31     -0.08066     -0.10622     -0.08444 *
 * Ti             32     -0.01821      0.01385      0.03514 *
 * Ti             33     -0.01850     -0.15884      0.08487 *
 * Ti             34     -0.01483      0.06251     -0.06177 *
 * Ti             35      0.02546      0.12536      0.04134 *
 * Ti             36     -0.13256     -0.00984      0.22932 *
 * Ti             37     -0.01910      0.00629     -0.05701 *
 * Ti             38      0.04301      0.16970     -0.14738 *
 * Ti             39      0.09963     -0.04376      0.14359 *
 * Ti             40     -0.03438      0.09940     -0.12063 *
 * Ti             41      0.00146     -0.02266      0.08083 *
 * Ti             42      0.00045      0.05350     -0.04216 *
 * Ti             43     -0.05776     -0.12360     -0.04972 *
 * Ti             44      0.07007      0.06851      0.01251 *
 * Ti             45      0.02896      0.03784     -0.03855 *
 * Ti             46      0.01516     -0.09307     -0.08497 *
 * Ti             47      0.01446      0.03196     -0.01104 *
 * Ti             48      0.06282      0.06488     -0.03107 *
 * Ti             49     -0.05224      0.00058     -0.01193 *
 * Ti             50      0.06593      0.01493     -0.07441 *
 * Ti             51      0.06681     -0.10596     -0.07260 *
 * Ti             52     -0.00861     -0.03001     -0.03202 *
 * Ti             53     -0.03117      0.07439     -0.05417 *
 * Ti             54     -0.12044      0.06555      0.02192 *
 * Ti             55      0.02116      0.07012      0.05287 *
 * Ti             56      0.20873      0.05020      0.30118 *
 * Ti             57     -0.03682      0.07626     -0.09361 *
 * Ti             58     -0.00842      0.11078      0.01717 *
 * Ti             59      0.09156     -0.09084     -0.03581 *
 * Ti             60     -0.03169      0.03511     -0.04200 *
 * Ti             61     -0.09956     -0.01612     -0.06108 *
 * Ti             62     -0.00850     -0.00601     -0.05209 *
 * Ti             63     -0.11256     -0.06393      0.02610 *
 * Ti             64     -0.04014      0.03225      0.02878 *
 * Ti             65     -0.04455      0.04714     -0.09354 *
 * Ti             66     -0.03599     -0.09108     -0.03283 *
 * Ti             67      0.03849     -0.00900     -0.02038 *
 * Ti             68     -0.07176      0.06018     -0.11292 *
 * Ti             69     -0.13902     -0.09034      0.03645 *
 * Ti             70      0.01491     -0.02402     -0.14297 *
 * V               1     -0.02933     -0.06192      0.02555 *
 * V               2      0.09700      0.05804      0.07609 *
 * V               3      0.29922     -0.16508      0.23245 *
 *                                                          *
 ************************************************************

 ***************** Stress Tensor *****************
 *                                               *
 *          Cartesian components (GPa)           *
 * --------------------------------------------- *
 *             x             y             z     *
 *                                               *
 *  x      3.685738      0.008519     -0.208975  *
 *  y      0.008519      1.595246      1.261192  *
 *  z     -0.208975      1.261192      1.068209  *
 *                                               *
 *  Pressure:   -2.1164                          *
 *                                               *
 *************************************************

 Pseudo atomic calculation performed for Al 3s2 3p1

 Converged in 15 iterations to a total energy of -107.1308 eV

 Pseudo atomic calculation performed for Ti 3s2 3p6 3d2 4s2

 Converged in 34 iterations to a total energy of -1587.0236 eV

 Pseudo atomic calculation performed for V 3s2 3p6 3d3 4s2

 Converged in 35 iterations to a total energy of -2065.7874 eV
Charge spilling parameter for spin component 1 = 0.08%

            Orbital Populations       
     Ion    Atom   Orbital             Charge
  -------------------------------------------
     Al     1      S                    0.921
     Al     1      Px                   0.675
     Al     1      Py                   0.663
     Al     1      Pz                   0.675
     Al     2      S                    0.966
     Al     2      Px                   0.691
     Al     2      Py                   0.720
     Al     2      Pz                   0.671
     Al     3      S                    0.970
     Al     3      Px                   0.732
     Al     3      Py                   0.745
     Al     3      Pz                   0.633
     Al     4      S                    0.974
     Al     4      Px                   0.732
     Al     4      Py                   0.722
     Al     4      Pz                   0.636
     Al     5      S                    0.948
     Al     5      Px                   0.629
     Al     5      Py                   0.662
     Al     5      Pz                   0.696
     Al     6      S                    0.979
     Al     6      Px                   0.687
     Al     6      Py                   0.715
     Al     6      Pz                   0.673
     Al     7      S                    0.983
     Al     7      Px                   0.661
     Al     7      Py                   0.715
     Al     7      Pz                   0.689
     Al     8      S                    0.958
     Al     8      Px                   0.718
     Al     8      Py                   0.708
     Al     8      Pz                   0.664
     Ti     1      S                    2.000
     Ti     1      Px                   2.003
     Ti     1      Py                   2.002
     Ti     1      Pz                   2.004
     Ti     1      S                    0.324
     Ti     1      Dzz                  0.483
     Ti     1      Dzy                  0.621
     Ti     1      Dzx                  0.626
     Ti     1      Dxx-yy               0.448
     Ti     1      Dxy                  0.447
     Ti     1      Px                   0.340
     Ti     1      Py                   0.350
     Ti     1      Pz                   0.309
     Ti     2      S                    2.004
     Ti     2      Px                   2.006
     Ti     2      Py                   2.007
     Ti     2      Pz                   2.006
     Ti     2      S                    0.284
     Ti     2      Dzz                  0.597
     Ti     2      Dzy                  0.512
     Ti     2      Dzx                  0.496
     Ti     2      Dxx-yy               0.590
     Ti     2      Dxy                  0.590
     Ti     2      Px                   0.299
     Ti     2      Py                   0.305
     Ti     2      Pz                   0.333
     Ti     3      S                    2.004
     Ti     3      Px                   2.006
     Ti     3      Py                   2.006
     Ti     3      Pz                   2.005
     Ti     3      S                    0.288
     Ti     3      Dzz                  0.601
     Ti     3      Dzy                  0.504
     Ti     3      Dzx                  0.483
     Ti     3      Dxx-yy               0.599
     Ti     3      Dxy                  0.592
     Ti     3      Px                   0.306
     Ti     3      Py                   0.315
     Ti     3      Pz                   0.325
     Ti     4      S                    2.004
     Ti     4      Px                   2.006
     Ti     4      Py                   2.007
     Ti     4      Pz                   2.006
     Ti     4      S                    0.276
     Ti     4      Dzz                  0.602
     Ti     4      Dzy                  0.507
     Ti     4      Dzx                  0.489
     Ti     4      Dxx-yy               0.591
     Ti     4      Dxy                  0.596
     Ti     4      Px                   0.297
     Ti     4      Py                   0.305
     Ti     4      Pz                   0.326
     Ti     5      S                    2.003
     Ti     5      Px                   2.006
     Ti     5      Py                   2.006
     Ti     5      Pz                   2.005
     Ti     5      S                    0.290
     Ti     5      Dzz                  0.599
     Ti     5      Dzy                  0.500
     Ti     5      Dzx                  0.484
     Ti     5      Dxx-yy               0.599
     Ti     5      Dxy                  0.593
     Ti     5      Px                   0.309
     Ti     5      Py                   0.316
     Ti     5      Pz                   0.325
     Ti     6      S                    2.000
     Ti     6      Px                   2.002
     Ti     6      Py                   2.002
     Ti     6      Pz                   2.004
     Ti     6      S                    0.323
     Ti     6      Dzz                  0.478
     Ti     6      Dzy                  0.626
     Ti     6      Dzx                  0.637
     Ti     6      Dxx-yy               0.447
     Ti     6      Dxy                  0.437
     Ti     6      Px                   0.334
     Ti     6      Py                   0.347
     Ti     6      Pz                   0.309
     Ti     7      S                    2.004
     Ti     7      Px                   2.006
     Ti     7      Py                   2.006
     Ti     7      Pz                   2.006
     Ti     7      S                    0.272
     Ti     7      Dzz                  0.580
     Ti     7      Dzy                  0.504
     Ti     7      Dzx                  0.497
     Ti     7      Dxx-yy               0.594
     Ti     7      Dxy                  0.601
     Ti     7      Px                   0.321
     Ti     7      Py                   0.318
     Ti     7      Pz                   0.341
     Ti     8      S                    2.003
     Ti     8      Px                   2.006
     Ti     8      Py                   2.006
     Ti     8      Pz                   2.005
     Ti     8      S                    0.277
     Ti     8      Dzz                  0.595
     Ti     8      Dzy                  0.505
     Ti     8      Dzx                  0.495
     Ti     8      Dxx-yy               0.586
     Ti     8      Dxy                  0.584
     Ti     8      Px                   0.328
     Ti     8      Py                   0.323
     Ti     8      Pz                   0.335
     Ti     9      S                    2.000
     Ti     9      Px                   2.002
     Ti     9      Py                   2.002
     Ti     9      Pz                   2.003
     Ti     9      S                    0.308
     Ti     9      Dzz                  0.492
     Ti     9      Dzy                  0.589
     Ti     9      Dzx                  0.605
     Ti     9      Dxx-yy               0.468
     Ti     9      Dxy                  0.453
     Ti     9      Px                   0.358
     Ti     9      Py                   0.345
     Ti     9      Pz                   0.338
     Ti    10      S                    2.004
     Ti    10      Px                   2.006
     Ti    10      Py                   2.006
     Ti    10      Pz                   2.006
     Ti    10      S                    0.276
     Ti    10      Dzz                  0.581
     Ti    10      Dzy                  0.518
     Ti    10      Dzx                  0.502
     Ti    10      Dxx-yy               0.605
     Ti    10      Dxy                  0.584
     Ti    10      Px                   0.285
     Ti    10      Py                   0.302
     Ti    10      Pz                   0.333
     Ti    11      S                    2.004
     Ti    11      Px                   2.006
     Ti    11      Py                   2.007
     Ti    11      Pz                   2.006
     Ti    11      S                    0.288
     Ti    11      Dzz                  0.607
     Ti    11      Dzy                  0.500
     Ti    11      Dzx                  0.476
     Ti    11      Dxx-yy               0.587
     Ti    11      Dxy                  0.606
     Ti    11      Px                   0.325
     Ti    11      Py                   0.304
     Ti    11      Pz                   0.322
     Ti    12      S                    2.000
     Ti    12      Px                   2.002
     Ti    12      Py                   2.002
     Ti    12      Pz                   2.004
     Ti    12      S                    0.305
     Ti    12      Dzz                  0.503
     Ti    12      Dzy                  0.612
     Ti    12      Dzx                  0.585
     Ti    12      Dxx-yy               0.442
     Ti    12      Dxy                  0.466
     Ti    12      Px                   0.349
     Ti    12      Py                   0.343
     Ti    12      Pz                   0.342
     Ti    13      S                    2.003
     Ti    13      Px                   2.006
     Ti    13      Py                   2.006
     Ti    13      Pz                   2.005
     Ti    13      S                    0.268
     Ti    13      Dzz                  0.573
     Ti    13      Dzy                  0.508
     Ti    13      Dzx                  0.501
     Ti    13      Dxx-yy               0.598
     Ti    13      Dxy                  0.598
     Ti    13      Px                   0.328
     Ti    13      Py                   0.315
     Ti    13      Pz                   0.340
     Ti    14      S                    2.004
     Ti    14      Px                   2.006
     Ti    14      Py                   2.006
     Ti    14      Pz                   2.005
     Ti    14      S                    0.279
     Ti    14      Dzz                  0.596
     Ti    14      Dzy                  0.508
     Ti    14      Dzx                  0.476
     Ti    14      Dxx-yy               0.587
     Ti    14      Dxy                  0.603
     Ti    14      Px                   0.336
     Ti    14      Py                   0.313
     Ti    14      Pz                   0.332
     Ti    15      S                    2.000
     Ti    15      Px                   2.002
     Ti    15      Py                   2.002
     Ti    15      Pz                   2.003
     Ti    15      S                    0.314
     Ti    15      Dzz                  0.489
     Ti    15      Dzy                  0.610
     Ti    15      Dzx                  0.603
     Ti    15      Dxx-yy               0.460
     Ti    15      Dxy                  0.444
     Ti    15      Px                   0.354
     Ti    15      Py                   0.344
     Ti    15      Pz                   0.340
     Ti    16      S                    2.003
     Ti    16      Px                   2.005
     Ti    16      Py                   2.006
     Ti    16      Pz                   2.005
     Ti    16      S                    0.281
     Ti    16      Dzz                  0.613
     Ti    16      Dzy                  0.500
     Ti    16      Dzx                  0.481
     Ti    16      Dxx-yy               0.583
     Ti    16      Dxy                  0.589
     Ti    16      Px                   0.315
     Ti    16      Py                   0.313
     Ti    16      Pz                   0.321
     Ti    17      S                    2.003
     Ti    17      Px                   2.006
     Ti    17      Py                   2.006
     Ti    17      Pz                   2.005
     Ti    17      S                    0.292
     Ti    17      Dzz                  0.613
     Ti    17      Dzy                  0.510
     Ti    17      Dzx                  0.478
     Ti    17      Dxx-yy               0.587
     Ti    17      Dxy                  0.582
     Ti    17      Px                   0.314
     Ti    17      Py                   0.313
     Ti    17      Pz                   0.325
     Ti    18      S                    2.000
     Ti    18      Px                   2.002
     Ti    18      Py                   2.002
     Ti    18      Pz                   2.003
     Ti    18      S                    0.311
     Ti    18      Dzz                  0.492
     Ti    18      Dzy                  0.613
     Ti    18      Dzx                  0.585
     Ti    18      Dxx-yy               0.457
     Ti    18      Dxy                  0.468
     Ti    18      Px                   0.358
     Ti    18      Py                   0.343
     Ti    18      Pz                   0.342
     Ti    19      S                    2.003
     Ti    19      Px                   2.006
     Ti    19      Py                   2.006
     Ti    19      Pz                   2.005
     Ti    19      S                    0.279
     Ti    19      Dzz                  0.586
     Ti    19      Dzy                  0.503
     Ti    19      Dzx                  0.499
     Ti    19      Dxx-yy               0.601
     Ti    19      Dxy                  0.597
     Ti    19      Px                   0.310
     Ti    19      Py                   0.292
     Ti    19      Pz                   0.334
     Ti    20      S                    2.003
     Ti    20      Px                   2.006
     Ti    20      Py                   2.006
     Ti    20      Pz                   2.005
     Ti    20      S                    0.280
     Ti    20      Dzz                  0.586
     Ti    20      Dzy                  0.502
     Ti    20      Dzx                  0.501
     Ti    20      Dxx-yy               0.595
     Ti    20      Dxy                  0.600
     Ti    20      Px                   0.305
     Ti    20      Py                   0.294
     Ti    20      Pz                   0.334
     Ti    21      S                    1.999
     Ti    21      Px                   2.002
     Ti    21      Py                   2.002
     Ti    21      Pz                   2.003
     Ti    21      S                    0.314
     Ti    21      Dzz                  0.507
     Ti    21      Dzy                  0.609
     Ti    21      Dzx                  0.587
     Ti    21      Dxx-yy               0.443
     Ti    21      Dxy                  0.461
     Ti    21      Px                   0.356
     Ti    21      Py                   0.343
     Ti    21      Pz                   0.335
     Ti    22      S                    2.003
     Ti    22      Px                   2.006
     Ti    22      Py                   2.006
     Ti    22      Pz                   2.005
     Ti    22      S                    0.277
     Ti    22      Dzz                  0.595
     Ti    22      Dzy                  0.505
     Ti    22      Dzx                  0.501
     Ti    22      Dxx-yy               0.587
     Ti    22      Dxy                  0.597
     Ti    22      Px                   0.315
     Ti    22      Py                   0.294
     Ti    22      Pz                   0.333
     Ti    23      S                    2.003
     Ti    23      Px                   2.005
     Ti    23      Py                   2.006
     Ti    23      Pz                   2.005
     Ti    23      S                    0.273
     Ti    23      Dzz                  0.571
     Ti    23      Dzy                  0.513
     Ti    23      Dzx                  0.494
     Ti    23      Dxx-yy               0.596
     Ti    23      Dxy                  0.592
     Ti    23      Px                   0.309
     Ti    23      Py                   0.317
     Ti    23      Pz                   0.345
     Ti    24      S                    2.000
     Ti    24      Px                   2.002
     Ti    24      Py                   2.002
     Ti    24      Pz                   2.003
     Ti    24      S                    0.315
     Ti    24      Dzz                  0.487
     Ti    24      Dzy                  0.624
     Ti    24      Dzx                  0.597
     Ti    24      Dxx-yy               0.439
     Ti    24      Dxy                  0.464
     Ti    24      Px                   0.353
     Ti    24      Py                   0.345
     Ti    24      Pz                   0.345
     Ti    25      S                    2.003
     Ti    25      Px                   2.005
     Ti    25      Py                   2.006
     Ti    25      Pz                   2.005
     Ti    25      S                    0.273
     Ti    25      Dzz                  0.591
     Ti    25      Dzy                  0.499
     Ti    25      Dzx                  0.488
     Ti    25      Dxx-yy               0.600
     Ti    25      Dxy                  0.585
     Ti    25      Px                   0.332
     Ti    25      Py                   0.325
     Ti    25      Pz                   0.334
     Ti    26      S                    2.002
     Ti    26      Px                   2.005
     Ti    26      Py                   2.005
     Ti    26      Pz                   2.004
     Ti    26      S                    0.275
     Ti    26      Dzz                  0.613
     Ti    26      Dzy                  0.490
     Ti    26      Dzx                  0.504
     Ti    26      Dxx-yy               0.567
     Ti    26      Dxy                  0.593
     Ti    26      Px                   0.291
     Ti    26      Py                   0.289
     Ti    26      Pz                   0.339
     Ti    27      S                    2.000
     Ti    27      Px                   2.002
     Ti    27      Py                   2.003
     Ti    27      Pz                   2.003
     Ti    27      S                    0.321
     Ti    27      Dzz                  0.492
     Ti    27      Dzy                  0.613
     Ti    27      Dzx                  0.586
     Ti    27      Dxx-yy               0.441
     Ti    27      Dxy                  0.488
     Ti    27      Px                   0.344
     Ti    27      Py                   0.322
     Ti    27      Pz                   0.331
     Ti    28      S                    2.002
     Ti    28      Px                   2.004
     Ti    28      Py                   2.004
     Ti    28      Pz                   2.004
     Ti    28      S                    0.292
     Ti    28      Dzz                  0.576
     Ti    28      Dzy                  0.519
     Ti    28      Dzx                  0.537
     Ti    28      Dxx-yy               0.507
     Ti    28      Dxy                  0.555
     Ti    28      Px                   0.312
     Ti    28      Py                   0.321
     Ti    28      Pz                   0.349
     Ti    29      S                    2.002
     Ti    29      Px                   2.005
     Ti    29      Py                   2.005
     Ti    29      Pz                   2.004
     Ti    29      S                    0.299
     Ti    29      Dzz                  0.569
     Ti    29      Dzy                  0.473
     Ti    29      Dzx                  0.481
     Ti    29      Dxx-yy               0.613
     Ti    29      Dxy                  0.597
     Ti    29      Px                   0.341
     Ti    29      Py                   0.332
     Ti    29      Pz                   0.269
     Ti    30      S                    1.999
     Ti    30      Px                   2.002
     Ti    30      Py                   2.002
     Ti    30      Pz                   2.003
     Ti    30      S                    0.311
     Ti    30      Dzz                  0.500
     Ti    30      Dzy                  0.608
     Ti    30      Dzx                  0.569
     Ti    30      Dxx-yy               0.459
     Ti    30      Dxy                  0.464
     Ti    30      Px                   0.369
     Ti    30      Py                   0.356
     Ti    30      Pz                   0.331
     Ti    31      S                    2.002
     Ti    31      Px                   2.004
     Ti    31      Py                   2.004
     Ti    31      Pz                   2.004
     Ti    31      S                    0.285
     Ti    31      Dzz                  0.560
     Ti    31      Dzy                  0.489
     Ti    31      Dzx                  0.556
     Ti    31      Dxx-yy               0.543
     Ti    31      Dxy                  0.547
     Ti    31      Px                   0.309
     Ti    31      Py                   0.301
     Ti    31      Pz                   0.347
     Ti    32      S                    2.000
     Ti    32      Px                   2.002
     Ti    32      Py                   2.003
     Ti    32      Pz                   2.003
     Ti    32      S                    0.322
     Ti    32      Dzz                  0.511
     Ti    32      Dzy                  0.607
     Ti    32      Dzx                  0.594
     Ti    32      Dxx-yy               0.441
     Ti    32      Dxy                  0.472
     Ti    32      Px                   0.337
     Ti    32      Py                   0.316
     Ti    32      Pz                   0.336
     Ti    33      S                    2.002
     Ti    33      Px                   2.004
     Ti    33      Py                   2.005
     Ti    33      Pz                   2.004
     Ti    33      S                    0.287
     Ti    33      Dzz                  0.594
     Ti    33      Dzy                  0.490
     Ti    33      Dzx                  0.523
     Ti    33      Dxx-yy               0.540
     Ti    33      Dxy                  0.574
     Ti    33      Px                   0.306
     Ti    33      Py                   0.279
     Ti    33      Pz                   0.355
     Ti    34      S                    2.001
     Ti    34      Px                   2.004
     Ti    34      Py                   2.004
     Ti    34      Pz                   2.004
     Ti    34      S                    0.309
     Ti    34      Dzz                  0.519
     Ti    34      Dzy                  0.599
     Ti    34      Dzx                  0.565
     Ti    34      Dxx-yy               0.486
     Ti    34      Dxy                  0.476
     Ti    34      Px                   0.309
     Ti    34      Py                   0.342
     Ti    34      Pz                   0.337
     Ti    35      S                    2.002
     Ti    35      Px                   2.005
     Ti    35      Py                   2.004
     Ti    35      Pz                   2.004
     Ti    35      S                    0.299
     Ti    35      Dzz                  0.608
     Ti    35      Dzy                  0.545
     Ti    35      Dzx                  0.507
     Ti    35      Dxx-yy               0.547
     Ti    35      Dxy                  0.521
     Ti    35      Px                   0.309
     Ti    35      Py                   0.263
     Ti    35      Pz                   0.340
     Ti    36      S                    2.003
     Ti    36      Px                   2.005
     Ti    36      Py                   2.006
     Ti    36      Pz                   2.005
     Ti    36      S                    0.341
     Ti    36      Dzz                  0.575
     Ti    36      Dzy                  0.489
     Ti    36      Dzx                  0.477
     Ti    36      Dxx-yy               0.603
     Ti    36      Dxy                  0.612
     Ti    36      Px                   0.383
     Ti    36      Py                   0.372
     Ti    36      Pz                   0.240
     Ti    37      S                    2.001
     Ti    37      Px                   2.003
     Ti    37      Py                   2.004
     Ti    37      Pz                   2.004
     Ti    37      S                    0.304
     Ti    37      Dzz                  0.509
     Ti    37      Dzy                  0.593
     Ti    37      Dzx                  0.559
     Ti    37      Dxx-yy               0.514
     Ti    37      Dxy                  0.454
     Ti    37      Px                   0.344
     Ti    37      Py                   0.335
     Ti    37      Pz                   0.327
     Ti    38      S                    2.002
     Ti    38      Px                   2.004
     Ti    38      Py                   2.005
     Ti    38      Pz                   2.004
     Ti    38      S                    0.286
     Ti    38      Dzz                  0.566
     Ti    38      Dzy                  0.558
     Ti    38      Dzx                  0.495
     Ti    38      Dxx-yy               0.589
     Ti    38      Dxy                  0.493
     Ti    38      Px                   0.328
     Ti    38      Py                   0.310
     Ti    38      Pz                   0.339
     Ti    39      S                    2.001
     Ti    39      Px                   2.004
     Ti    39      Py                   2.004
     Ti    39      Pz                   2.004
     Ti    39      S                    0.315
     Ti    39      Dzz                  0.538
     Ti    39      Dzy                  0.609
     Ti    39      Dzx                  0.554
     Ti    39      Dxx-yy               0.491
     Ti    39      Dxy                  0.465
     Ti    39      Px                   0.304
     Ti    39      Py                   0.341
     Ti    39      Pz                   0.333
     Ti    40      S                    2.002
     Ti    40      Px                   2.004
     Ti    40      Py                   2.005
     Ti    40      Pz                   2.004
     Ti    40      S                    0.300
     Ti    40      Dzz                  0.584
     Ti    40      Dzy                  0.519
     Ti    40      Dzx                  0.511
     Ti    40      Dxx-yy               0.574
     Ti    40      Dxy                  0.517
     Ti    40      Px                   0.336
     Ti    40      Py                   0.266
     Ti    40      Pz                   0.332
     Ti    41      S                    2.003
     Ti    41      Px                   2.005
     Ti    41      Py                   2.006
     Ti    41      Pz                   2.005
     Ti    41      S                    0.296
     Ti    41      Dzz                  0.592
     Ti    41      Dzy                  0.505
     Ti    41      Dzx                  0.507
     Ti    41      Dxx-yy               0.603
     Ti    41      Dxy                  0.568
     Ti    41      Px                   0.316
     Ti    41      Py                   0.300
     Ti    41      Pz                   0.302
     Ti    42      S                    2.000
     Ti    42      Px                   2.002
     Ti    42      Py                   2.002
     Ti    42      Pz                   2.004
     Ti    42      S                    0.332
     Ti    42      Dzz                  0.484
     Ti    42      Dzy                  0.609
     Ti    42      Dzx                  0.627
     Ti    42      Dxx-yy               0.461
     Ti    42      Dxy                  0.448
     Ti    42      Px                   0.328
     Ti    42      Py                   0.369
     Ti    42      Pz                   0.314
     Ti    43      S                    2.002
     Ti    43      Px                   2.004
     Ti    43      Py                   2.005
     Ti    43      Pz                   2.004
     Ti    43      S                    0.301
     Ti    43      Dzz                  0.586
     Ti    43      Dzy                  0.508
     Ti    43      Dzx                  0.472
     Ti    43      Dxx-yy               0.563
     Ti    43      Dxy                  0.606
     Ti    43      Px                   0.340
     Ti    43      Py                   0.330
     Ti    43      Pz                   0.280
     Ti    44      S                    2.003
     Ti    44      Px                   2.005
     Ti    44      Py                   2.005
     Ti    44      Pz                   2.005
     Ti    44      S                    0.305
     Ti    44      Dzz                  0.584
     Ti    44      Dzy                  0.503
     Ti    44      Dzx                  0.475
     Ti    44      Dxx-yy               0.579
     Ti    44      Dxy                  0.593
     Ti    44      Px                   0.359
     Ti    44      Py                   0.334
     Ti    44      Pz                   0.292
     Ti    45      S                    2.000
     Ti    45      Px                   2.002
     Ti    45      Py                   2.002
     Ti    45      Pz                   2.003
     Ti    45      S                    0.335
     Ti    45      Dzz                  0.477
     Ti    45      Dzy                  0.624
     Ti    45      Dzx                  0.613
     Ti    45      Dxx-yy               0.461
     Ti    45      Dxy                  0.447
     Ti    45      Px                   0.331
     Ti    45      Py                   0.355
     Ti    45      Pz                   0.317
     Ti    46      S                    2.003
     Ti    46      Px                   2.005
     Ti    46      Py                   2.006
     Ti    46      Pz                   2.004
     Ti    46      S                    0.290
     Ti    46      Dzz                  0.630
     Ti    46      Dzy                  0.507
     Ti    46      Dzx                  0.470
     Ti    46      Dxx-yy               0.604
     Ti    46      Dxy                  0.574
     Ti    46      Px                   0.320
     Ti    46      Py                   0.294
     Ti    46      Pz                   0.297
     Ti    47      S                    2.000
     Ti    47      Px                   2.003
     Ti    47      Py                   2.003
     Ti    47      Pz                   2.004
     Ti    47      S                    0.316
     Ti    47      Dzz                  0.516
     Ti    47      Dzy                  0.582
     Ti    47      Dzx                  0.595
     Ti    47      Dxx-yy               0.474
     Ti    47      Dxy                  0.478
     Ti    47      Px                   0.323
     Ti    47      Py                   0.285
     Ti    47      Pz                   0.317
     Ti    48      S                    2.004
     Ti    48      Px                   2.006
     Ti    48      Py                   2.007
     Ti    48      Pz                   2.006
     Ti    48      S                    0.268
     Ti    48      Dzz                  0.576
     Ti    48      Dzy                  0.534
     Ti    48      Dzx                  0.491
     Ti    48      Dxx-yy               0.594
     Ti    48      Dxy                  0.581
     Ti    48      Px                   0.321
     Ti    48      Py                   0.304
     Ti    48      Pz                   0.350
     Ti    49      S                    2.003
     Ti    49      Px                   2.006
     Ti    49      Py                   2.006
     Ti    49      Pz                   2.006
     Ti    49      S                    0.265
     Ti    49      Dzz                  0.581
     Ti    49      Dzy                  0.508
     Ti    49      Dzx                  0.503
     Ti    49      Dxx-yy               0.589
     Ti    49      Dxy                  0.607
     Ti    49      Px                   0.314
     Ti    49      Py                   0.291
     Ti    49      Pz                   0.334
     Ti    50      S                    1.999
     Ti    50      Px                   2.002
     Ti    50      Py                   2.002
     Ti    50      Pz                   2.003
     Ti    50      S                    0.313
     Ti    50      Dzz                  0.503
     Ti    50      Dzy                  0.584
     Ti    50      Dzx                  0.601
     Ti    50      Dxx-yy               0.466
     Ti    50      Dxy                  0.448
     Ti    50      Px                   0.328
     Ti    50      Py                   0.360
     Ti    50      Pz                   0.332
     Ti    51      S                    2.003
     Ti    51      Px                   2.005
     Ti    51      Py                   2.006
     Ti    51      Pz                   2.005
     Ti    51      S                    0.281
     Ti    51      Dzz                  0.586
     Ti    51      Dzy                  0.524
     Ti    51      Dzx                  0.455
     Ti    51      Dxx-yy               0.573
     Ti    51      Dxy                  0.618
     Ti    51      Px                   0.321
     Ti    51      Py                   0.297
     Ti    51      Pz                   0.333
     Ti    52      S                    2.003
     Ti    52      Px                   2.006
     Ti    52      Py                   2.005
     Ti    52      Pz                   2.005
     Ti    52      S                    0.273
     Ti    52      Dzz                  0.585
     Ti    52      Dzy                  0.502
     Ti    52      Dzx                  0.499
     Ti    52      Dxx-yy               0.593
     Ti    52      Dxy                  0.600
     Ti    52      Px                   0.314
     Ti    52      Py                   0.292
     Ti    52      Pz                   0.339
     Ti    53      S                    2.000
     Ti    53      Px                   2.002
     Ti    53      Py                   2.003
     Ti    53      Pz                   2.004
     Ti    53      S                    0.319
     Ti    53      Dzz                  0.509
     Ti    53      Dzy                  0.592
     Ti    53      Dzx                  0.606
     Ti    53      Dxx-yy               0.466
     Ti    53      Dxy                  0.467
     Ti    53      Px                   0.347
     Ti    53      Py                   0.286
     Ti    53      Pz                   0.332
     Ti    54      S                    2.003
     Ti    54      Px                   2.006
     Ti    54      Py                   2.006
     Ti    54      Pz                   2.005
     Ti    54      S                    0.270
     Ti    54      Dzz                  0.586
     Ti    54      Dzy                  0.515
     Ti    54      Dzx                  0.470
     Ti    54      Dxx-yy               0.604
     Ti    54      Dxy                  0.598
     Ti    54      Px                   0.305
     Ti    54      Py                   0.320
     Ti    54      Pz                   0.344
     Ti    55      S                    2.003
     Ti    55      Px                   2.006
     Ti    55      Py                   2.006
     Ti    55      Pz                   2.005
     Ti    55      S                    0.252
     Ti    55      Dzz                  0.595
     Ti    55      Dzy                  0.502
     Ti    55      Dzx                  0.484
     Ti    55      Dxx-yy               0.592
     Ti    55      Dxy                  0.608
     Ti    55      Px                   0.304
     Ti    55      Py                   0.309
     Ti    55      Pz                   0.351
     Ti    56      S                    2.001
     Ti    56      Px                   2.004
     Ti    56      Py                   2.003
     Ti    56      Pz                   2.003
     Ti    56      S                    0.287
     Ti    56      Dzz                  0.558
     Ti    56      Dzy                  0.525
     Ti    56      Dzx                  0.509
     Ti    56      Dxx-yy               0.528
     Ti    56      Dxy                  0.566
     Ti    56      Px                   0.311
     Ti    56      Py                   0.304
     Ti    56      Pz                   0.345
     Ti    57      S                    2.004
     Ti    57      Px                   2.006
     Ti    57      Py                   2.007
     Ti    57      Pz                   2.006
     Ti    57      S                    0.290
     Ti    57      Dzz                  0.578
     Ti    57      Dzy                  0.516
     Ti    57      Dzx                  0.494
     Ti    57      Dxx-yy               0.589
     Ti    57      Dxy                  0.598
     Ti    57      Px                   0.328
     Ti    57      Py                   0.311
     Ti    57      Pz                   0.340
     Ti    58      S                    2.001
     Ti    58      Px                   2.003
     Ti    58      Py                   2.004
     Ti    58      Pz                   2.004
     Ti    58      S                    0.299
     Ti    58      Dzz                  0.521
     Ti    58      Dzy                  0.529
     Ti    58      Dzx                  0.582
     Ti    58      Dxx-yy               0.441
     Ti    58      Dxy                  0.546
     Ti    58      Px                   0.367
     Ti    58      Py                   0.318
     Ti    58      Pz                   0.338
     Ti    59      S                    2.002
     Ti    59      Px                   2.004
     Ti    59      Py                   2.004
     Ti    59      Pz                   2.004
     Ti    59      S                    0.282
     Ti    59      Dzz                  0.579
     Ti    59      Dzy                  0.505
     Ti    59      Dzx                  0.529
     Ti    59      Dxx-yy               0.533
     Ti    59      Dxy                  0.563
     Ti    59      Px                   0.303
     Ti    59      Py                   0.312
     Ti    59      Pz                   0.342
     Ti    60      S                    2.003
     Ti    60      Px                   2.006
     Ti    60      Py                   2.006
     Ti    60      Pz                   2.005
     Ti    60      S                    0.287
     Ti    60      Dzz                  0.596
     Ti    60      Dzy                  0.487
     Ti    60      Dzx                  0.491
     Ti    60      Dxx-yy               0.591
     Ti    60      Dxy                  0.594
     Ti    60      Px                   0.323
     Ti    60      Py                   0.319
     Ti    60      Pz                   0.330
     Ti    61      S                    2.001
     Ti    61      Px                   2.004
     Ti    61      Py                   2.005
     Ti    61      Pz                   2.004
     Ti    61      S                    0.300
     Ti    61      Dzz                  0.548
     Ti    61      Dzy                  0.511
     Ti    61      Dzx                  0.590
     Ti    61      Dxx-yy               0.473
     Ti    61      Dxy                  0.535
     Ti    61      Px                   0.339
     Ti    61      Py                   0.282
     Ti    61      Pz                   0.345
     Ti    62      S                    2.003
     Ti    62      Px                   2.006
     Ti    62      Py                   2.004
     Ti    62      Pz                   2.005
     Ti    62      S                    0.289
     Ti    62      Dzz                  0.608
     Ti    62      Dzy                  0.493
     Ti    62      Dzx                  0.488
     Ti    62      Dxx-yy               0.615
     Ti    62      Dxy                  0.532
     Ti    62      Px                   0.321
     Ti    62      Py                   0.335
     Ti    62      Pz                   0.324
     Ti    63      S                    2.001
     Ti    63      Px                   2.004
     Ti    63      Py                   2.004
     Ti    63      Pz                   2.004
     Ti    63      S                    0.312
     Ti    63      Dzz                  0.509
     Ti    63      Dzy                  0.597
     Ti    63      Dzx                  0.556
     Ti    63      Dxx-yy               0.504
     Ti    63      Dxy                  0.494
     Ti    63      Px                   0.296
[...]
             Ti 5  -- Ti 22                  0.37        2.66148
             Ti 20 -- Ti 41                  0.29        2.66328
             Ti 48 -- Ti 57                  0.28        2.66490
             Ti 56 -- Ti 57                  0.31        2.66691
             Ti 52 -- Ti 67                  0.35        2.66894
             Ti 43 -- V 1                    0.32        2.67241
              Al 8 -- Ti 70                  0.33        2.67483
             Ti 10 -- Ti 57                  0.31        2.67653
             Ti 67 -- Ti 68                  0.32        2.68022
             Ti 8  -- Ti 25                  0.28        2.68123
             Ti 22 -- Ti 68                  0.32        2.68414
             Ti 16 -- Ti 26                  0.33        2.68483
              Al 8 -- Ti 55                  0.33        2.68506
              Al 6 -- Ti 41                  0.39        2.68647
              Al 2 -- Ti 54                  0.34        2.68759
              Al 2 -- Ti 33                  0.35        2.68804
             Ti 13 -- Ti 60                  0.33        2.69225
              Al 7 -- Ti 46                  0.41        2.69299
             Ti 54 -- Ti 62                  0.27        2.69336
             Ti 19 -- Ti 65                  0.30        2.69493
              Al 8 -- Ti 46                  0.33        2.69579
             Ti 29 -- Ti 48                  0.25        2.69608
              Al 3 -- Ti 61                  0.32        2.69791
             Ti 59 -- V 3                    0.19        2.69867
             Ti 25 -- Ti 70                  0.28        2.69946
             Ti 43 -- Ti 44                  0.32        2.70153
             Ti 2  -- Ti 11                  0.31        2.70401
             Ti 29 -- Ti 41                  0.26        2.70592
              Al 6 -- Ti 64                  0.34        2.70632
              Al 2 -- V 1                    0.33        2.70887
              Al 4 -- V 2                    0.32        2.71088
             Ti 7  -- Ti 17                  0.29        2.71562
             Ti 23 -- Ti 43                  0.29        2.71565
              Al 3 -- Al 4                   0.24        2.71795
             Ti 11 -- Ti 35                  0.26        2.72060
              Al 7 -- Ti 26                  0.38        2.72156
             Ti 8  -- Ti 33                  0.26        2.72228
             Ti 59 -- Ti 60                  0.25        2.72258
             Ti 14 -- Ti 38                  0.24        2.72354
             Ti 51 -- Ti 60                  0.28        2.72483
             Ti 4  -- Ti 14                  0.29        2.72705
             Ti 28 -- Ti 29                  0.22        2.72770
             Ti 17 -- Ti 40                  0.24        2.74182
             Ti 59 -- Ti 68                  0.26        2.74878
              Al 6 -- Ti 35                  0.33        2.74889
             Ti 38 -- Ti 44                  0.23        2.75188
             Ti 44 -- Ti 67                  0.30        2.75190
             Ti 3  -- Ti 28                  0.25        2.75530
             Ti 40 -- Ti 46                  0.24        2.75577
             Ti 58 -- V 2                    0.36        2.75780
             Ti 29 -- V 2                    0.18        2.75919
              Al 7 -- Ti 41                  0.33        2.76297
              Al 6 -- Ti 44                  0.30        2.76401
              Al 6 -- Ti 46                  0.32        2.76626
              Al 3 -- Ti 38                  0.28        2.76811
             Ti 35 -- Ti 36                  0.19        2.76889
             Ti 36 -- Ti 58                  0.23        2.77039
             Ti 28 -- Ti 31                  0.22        2.77355
             Ti 57 -- Ti 62                  0.11        2.77424
              Al 8 -- Ti 67                  0.28        2.77557
              Al 3 -- Ti 39                  0.29        2.77565
             Ti 5  -- Ti 31                  0.27        2.77653
             Ti 56 -- Ti 65                  0.25        2.78161
             Ti 20 -- Ti 23                  0.13        2.78168
             Ti 48 -- Ti 54                  0.14        2.78420
             Ti 49 -- Ti 52                  0.05        2.78613
              Al 3 -- Ti 69                  0.26        2.78849
             Ti 16 -- Ti 62                  0.28        2.79023
              Al 8 -- Ti 64                  0.31        2.79056
             Ti 34 -- Ti 37                  0.34        2.79275
             Ti 65 -- Ti 68                  0.11        2.79289
             Ti 69 -- V 3                    0.17        2.79616
              Al 4 -- Ti 63                  0.31        2.79663
             Ti 9  -- Ti 15                  0.43        2.80164
             Ti 63 -- Ti 66                  0.30        2.80280
             Ti 37 -- Ti 39                  0.33        2.80332
             Ti 1  -- Ti 6                   0.40        2.80355
              Al 3 -- V 3                    0.25        2.80652
             Ti 42 -- Ti 45                  0.38        2.80788
              Al 7 -- Ti 43                  0.27        2.80888
             Ti 14 -- Ti 17                  0.14        2.80937
             Ti 38 -- Ti 40                  0.18        2.80944
             Ti 19 -- Ti 22                  0.10        2.81024
             Ti 56 -- V 3                    0.23        2.81048
             Ti 47 -- Ti 53                  0.32        2.81263
             Ti 18 -- Ti 24                  0.41        2.81412
             Ti 30 -- Ti 32                  0.34        2.81490
             Ti 61 -- V 2                    0.34        2.81556
              Al 2 -- Ti 61                  0.25        2.81569
             Ti 29 -- V 1                    0.18        2.81666
             Ti 2  -- Ti 7                   0.13        2.81704
             Ti 3  -- Ti 8                   0.10        2.81744
             Ti 11 -- Ti 17                  0.09        2.81827
             Ti 66 -- Ti 69                  0.32        2.81842
             Ti 10 -- Ti 13                  0.10        2.81896
             Ti 27 -- Ti 30                  0.39        2.81933
              Al 4 -- V 3                    0.27        2.81983
             Ti 48 -- Ti 51                  0.10        2.81993
             Ti 18 -- Ti 21                  0.36        2.82071
             Ti 4  -- Ti 7                   0.13        2.82193
             Ti 13 -- Ti 16                  0.10        2.82316
              Al 5 -- Ti 45                  0.45        2.82342
             Ti 22 -- Ti 25                  0.10        2.82348
             Ti 50 -- Ti 53                  0.39        2.82373
             Ti 3  -- Ti 5                   0.09        2.82399
             Ti 5  -- Ti 8                   0.10        2.82408
             Ti 10 -- Ti 16                  0.09        2.82483
              Al 4 -- Ti 33                  0.26        2.82532
             Ti 2  -- Ti 4                   0.09        2.82658
             Ti 35 -- Ti 38                  0.25        2.82767
             Ti 35 -- Ti 40                  0.19        2.82841
             Ti 12 -- Ti 15                  0.38        2.82911
             Ti 36 -- Ti 66                  0.21        2.83013
              Al 1 -- Ti 1                   0.36        2.83013
             Ti 47 -- Ti 50                  0.37        2.83025
              Al 1 -- Ti 6                   0.36        2.83152
             Ti 27 -- Ti 32                  0.35        2.83173
             Ti 21 -- Ti 24                  0.38        2.83189
             Ti 19 -- Ti 25                  0.10        2.83198
             Ti 28 -- Ti 33                  0.21        2.83270
             Ti 58 -- V 1                    0.17        2.83347
              Al 5 -- Ti 42                  0.38        2.83481
             Ti 65 -- Ti 70                  0.16        2.83498
             Ti 9  -- Ti 12                  0.36        2.83528
              Al 4 -- Ti 34                  0.31        2.83728
             Ti 52 -- Ti 55                  0.08        2.83765
             Ti 11 -- Ti 14                  0.12        2.83833
             Ti 68 -- Ti 70                  0.13        2.83882
             Ti 23 -- Ti 26                  0.15        2.83951
             Ti 49 -- Ti 55                  0.08        2.84216
             Ti 20 -- Ti 26                  0.12        2.84574
              Al 4 -- Ti 56                  0.20        2.84613
             Ti 63 -- Ti 69                  0.29        2.84711
             Ti 57 -- Ti 60                  0.14        2.84810
             Ti 54 -- V 2                    0.20        2.85152
              Al 4 -- Ti 36                  0.22        2.85384
             Ti 36 -- Ti 59                  0.21        2.85425
             Ti 31 -- Ti 33                  0.21        2.85948
              Al 4 -- Ti 40                  0.26        2.86188
             Ti 60 -- Ti 62                  0.12        2.86208
             Ti 36 -- Ti 37                  0.20        2.86220
             Ti 11 -- Ti 37                  0.17        2.86324
              Al 3 -- Ti 40                  0.26        2.86425
             Ti 28 -- Ti 36                  0.15        2.86519
             Ti 48 -- Ti 58                  0.11        2.86655
             Ti 51 -- Ti 54                  0.16        2.86810
             Ti 51 -- Ti 58                  0.13        2.86818
             Ti 30 -- V 1                    0.21        2.86823
             Ti 64 -- Ti 66                  0.17        2.86948
             Ti 34 -- Ti 39                  0.35        2.87022
              Al 3 -- Ti 31                  0.23        2.87154
             Ti 21 -- Ti 65                  0.20        2.87438
             Ti 48 -- V 2                    0.17        2.87741
              Al 6 -- Ti 66                  0.23        2.88185
             Ti 14 -- Ti 39                  0.15        2.88441
             Ti 24 -- Ti 68                  0.15        2.88907
             Ti 61 -- Ti 62                  0.04        2.89010
             Ti 65 -- Ti 66                  0.15        2.89243
             Ti 2  -- Ti 37                  0.17        2.89332
             Ti 42 -- Ti 44                  0.21        2.89335
              Al 3 -- Ti 36                  0.19        2.89916
             Ti 67 -- Ti 69                  0.18        2.89965
             Ti 64 -- Ti 67                  0.11        2.89978
              Al 7 -- Ti 27                  0.24        2.90139
             Ti 32 -- Ti 43                  0.14        2.90240
             Ti 41 -- Ti 43                  0.09        2.90271
             Ti 58 -- Ti 61                  0.31        2.90465
              Al 7 -- Ti 47                  0.23        2.90498
             Ti 18 -- Ti 70                  0.14        2.90709
              Al 3 -- Ti 59                  0.18        2.90883
             Ti 4  -- Ti 39                  0.13        2.91034
             Ti 61 -- V 3                    0.16        2.91191
             Ti 44 -- Ti 66                  0.16        2.91270
             Ti 36 -- Ti 38                  0.18        2.91401
             Ti 53 -- Ti 67                  0.17        2.91409
              Al 8 -- Ti 63                  0.23        2.91496
             Ti 17 -- Ti 34                  0.16        2.91806
              Al 3 -- Ti 33                  0.22        2.91967
             Ti 4  -- Ti 12                  0.16        2.92008
              Al 8 -- Ti 53                  0.20        2.92243
             Ti 3  -- Ti 30                  0.18        2.92245
             Ti 63 -- Ti 70                  0.09        2.92391
             Ti 6  -- Ti 25                  0.14        2.92470
             Ti 12 -- Ti 57                  0.17        2.92754
             Ti 62 -- V 2                    0.08        2.92961
             Ti 33 -- V 2                    0.15        2.93151
             Ti 15 -- Ti 60                  0.16        2.93170
             Ti 6  -- Ti 67                  0.13        2.93246
             Ti 8  -- Ti 27                  0.13        2.93332
             Ti 46 -- Ti 63                  0.16        2.93341
             Ti 31 -- Ti 36                  0.16        2.93348
              Al 6 -- Ti 63                  0.21        2.93383
             Ti 11 -- Ti 34                  0.15        2.93425
             Ti 28 -- Ti 34                  0.14        2.93487
             Ti 44 -- Ti 50                  0.16        2.93524
             Ti 51 -- Ti 61                  0.13        2.93550
             Ti 44 -- Ti 46                  0.13        2.93599
             Ti 28 -- V 2                    0.16        2.93635
             Ti 47 -- Ti 64                  0.11        2.93702
             Ti 56 -- Ti 63                  0.15        2.93725
              Al 4 -- Ti 28                  0.18        2.93736
             Ti 31 -- Ti 37                  0.15        2.93884
             Ti 5  -- Ti 32                  0.17        2.93951
              Al 2 -- Ti 32                  0.24        2.94055
             Ti 27 -- Ti 29                  0.16        2.94389
             Ti 5  -- Ti 37                  0.13        2.94543
             Ti 43 -- Ti 53                  0.12        2.94623
              Al 2 -- Ti 53                  0.24        2.94630
              Al 2 -- Ti 29                  0.24        2.94709
             Ti 59 -- Ti 66                  0.16        2.94903
             Ti 44 -- Ti 69                  0.12        2.94974
             Ti 46 -- Ti 53                  0.15        2.94976
             Ti 18 -- Ti 62                  0.14        2.95074
             Ti 4  -- Ti 37                  0.14        2.95233
             Ti 29 -- Ti 47                  0.15        2.95243
             Ti 7  -- Ti 39                  0.14        2.95295
             Ti 66 -- Ti 68                  0.18        2.95318
              Al 2 -- V 2                    0.19        2.95426
             Ti 8  -- Ti 39                  0.13        2.95519
             Ti 24 -- Ti 70                  0.14        2.95539
             Ti 1  -- Ti 64                  0.15        2.95545
             Ti 27 -- Ti 41                  0.19        2.95610
             Ti 1  -- Ti 19                  0.14        2.95618
             Ti 16 -- Ti 24                  0.16        2.95624
             Ti 2  -- Ti 9                   0.12        2.95647
             Ti 36 -- Ti 56                  0.17        2.95679
             Ti 66 -- Ti 67                  0.13        2.95711
              Al 6 -- Ti 47                  0.22        2.95715
             Ti 9  -- Ti 57                  0.12        2.95809
              Al 1 -- Ti 22                  0.19        2.95857
             Ti 7  -- Ti 34                  0.13        2.95897
             Ti 21 -- Ti 68                  0.17        2.95927
             Ti 9  -- Ti 54                  0.16        2.96000
             Ti 45 -- Ti 46                  0.17        2.96085
              Al 1 -- Ti 64                  0.18        2.96109
              Al 8 -- Ti 1                   0.20        2.96357
             Ti 34 -- Ti 35                  0.13        2.96448
             Ti 18 -- Ti 20                  0.15        2.96499
             Ti 3  -- Ti 37                  0.14        2.96705
             Ti 56 -- Ti 59                  0.24        2.96728
             Ti 16 -- Ti 18                  0.15        2.96741
             Ti 41 -- Ti 42                  0.15        2.96884
              Al 7 -- Ti 32                  0.19        2.96903
             Ti 3  -- Ti 34                  0.12        2.96910
              Al 8 -- Ti 69                  0.21        2.96929
             Ti 5  -- Ti 39                  0.12        2.96944
             Ti 12 -- Ti 52                  0.12        2.96978
             Ti 69 -- Ti 70                  0.07        2.97053
             Ti 2  -- Ti 34                  0.11        2.97154
             Ti 68 -- Ti 69                  0.08        2.97175
             Ti 59 -- Ti 61                  0.13        2.97179
              Al 8 -- Ti 47                  0.19        2.97284
             Ti 28 -- Ti 58                  0.08        2.97442
             Ti 33 -- Ti 61                  0.10        2.97606
             Ti 17 -- Ti 39                  0.11        2.97631
             Ti 24 -- Ti 62                  0.14        2.97669
             Ti 23 -- Ti 45                  0.13        2.97800
              Al 5 -- Al 6                   0.19        2.97823
             Ti 57 -- Ti 58                  0.13        2.98041
             Ti 1  -- Ti 55                  0.13        2.98111
              Al 1 -- Ti 49                  0.18        2.98188
             Ti 46 -- Ti 69                  0.13        2.98192
             Ti 9  -- Ti 16                  0.13        2.98212
             Ti 10 -- Ti 18                  0.14        2.98257
             Ti 60 -- Ti 61                  0.13        2.98449
             Ti 9  -- Ti 17                  0.14        2.98520
             Ti 50 -- Ti 67                  0.11        2.98530
             Ti 14 -- Ti 37                  0.13        2.98551
             Ti 30 -- Ti 43                  0.10        2.98709
             Ti 63 -- Ti 65                  0.08        2.98805
             Ti 30 -- Ti 41                  0.12        2.98992
             Ti 10 -- Ti 42                  0.11        2.99059
             Ti 54 -- Ti 61                  0.14        2.99077
             Ti 1  -- Ti 7                   0.11        2.99097
             Ti 7  -- Ti 15                  0.13        2.99114
             Ti 33 -- Ti 39                  0.13        2.99251
             Ti 13 -- Ti 21                  0.12        2.99264
             Ti 35 -- Ti 63                  0.15        2.99309
              Al 5 -- Ti 46                  0.20        2.99498
              Al 5 -- Ti 11                  0.18        2.99547
             Ti 22 -- Ti 32                  0.13        2.99581
             Ti 8  -- Ti 32                  0.12        2.99636
             Ti 14 -- Ti 42                  0.16        2.99652
             Ti 1  -- Ti 25                  0.14        2.99688
             Ti 24 -- Ti 60                  0.13        2.99707
             Ti 51 -- Ti 53                  0.13        2.99731
             Ti 12 -- Ti 14                  0.11        2.99768
             Ti 56 -- V 2                    0.15        2.99789
             Ti 37 -- Ti 38                  0.10        2.99811
             Ti 31 -- Ti 61                  0.09        2.99841
              Al 1 -- Ti 5                   0.17        2.99870
             Ti 63 -- Ti 64                  0.13        2.99871
             Ti 9  -- Ti 10                  0.12        2.99875
             Ti 5  -- Ti 30                  0.16        2.99902
             Ti 12 -- Ti 48                  0.12        2.99914
              Al 1 -- Ti 2                   0.15        2.99919
             Ti 15 -- Ti 54                  0.13        2.99923
              Al 5 -- Ti 17                  0.16        2.99939
             Ti 15 -- Ti 55                  0.15        2.99972
======================================================================

 
 A BibTeX formatted list of references used in this run has been written to 
 sqs_hex_sc3x3x3_Ti70Al8V3_frame0_09.bib
 
Initialisation time =     23.20 s
Calculation time    =   6635.22 s
Finalisation time   =      0.53 s
Total time          =   6658.95 s
Peak Memory Use     = 2633468 kB
 
Overall parallel efficiency rating: Mediocre (58%)
 
Data was distributed by:-
G-vector (16-way); efficiency rating: Satisfactory (60%)
k-point (15-way); efficiency rating: Excellent (95%)
