 +-------------------------------------------------+
 |                                                 |
 |      CCC   AA    SSS  TTTTT  EEEEE  PPPP        |
 |     C     A  A  S       T    E      P   P       |
 |     C     AAAA   SS     T    EEE    PPPP        |
 |     C     A  A     S    T    E      P           |
 |      CCC  A  A  SSS     T    EEEEE  P           |
 |                                                 |
 +-------------------------------------------------+
 |                                                 |
 | Welcome to Academic Release CASTEP version 24.1 |
 | Ab Initio Total Energy Program                  |
 |                                                 |
 | Authors:                                        |
 | M. Segall, M. Probert, C. Pickard, P. Hasnip,   |
 | S. Clark, K. Refson, J. R. Yates,               |
 | A. Bartok-Partay, M. Payne                      |
 |                                                 |
 | Contributors:                                   |
 | P. Lindan, P. Haynes, J. White, V. Milman,      |
 | N. Govind, M. Gibson, P. Tulip, V. Cocula,      |
 | B. Montanari, D. Quigley, M. Glover,            |
 | L. Bernasconi, A. Perlov, M. Plummer,           |
 | E. McNellis, J. Meyer, J. Gale, D. Jochym       |
 | J. Aarons, B. Walker, R. Gillen, D. Jones       |
 | T. Green, I. J. Bush, C. J. Armstrong,          |
 | E. J. Higgins, E. L. Brown, M. S. McFly,        |
 | J. Wilkins, B-C. Shih, P. J. P. Byrne,          |
 | R. J. Maurer, J. C. Womack, J. Dziedzic,        |
 | L. LeBlanc, T. K. Stenczel, J. Kermode,         |
 | S. Sturniolo, B. Shi, B. Durham, M. Evans,      |
 | M. J. Smith, A. Tamerus, Z. Hawkhead,           |
 | V. Ravindran, T. Hollins, S. A. Joyce,          |
 | R. T. Strong, A. M. Reilly                      |
 |                                                 |
 | Copyright (c) 2000 - 2023                       |
 |                                                 |
 |     Distributed under license from Cambridge    |
 |     Enterprise for academic use only.           |
 |                                                 |
 | Please cite                                     |
 |                                                 |
 |     "First principles methods using CASTEP"     |
 |                                                 |
 |         Zeitschrift fuer Kristallographie       |
 |           220(5-6) pp. 567-570 (2005)           |
 |                                                 |
 | S. J. Clark, M. D. Segall, C. J. Pickard,       |
 | P. J. Hasnip, M. J. Probert, K. Refson,         |
 | M. C. Payne                                     |
 |                                                 |
 |       in all publications arising from          |
 |              your use of CASTEP                 |
 |                                                 |
 +-------------------------------------------------+
 |                                                 |
 |              http://www.castep.org              |
 |                                                 |
 +-------------------------------------------------+



 Compiled for linux_x86_64_gfortran10 on Tue, 02 May 2023 15:31:46 +0100
 from code version db08e394c+  default  Mon May 1 16:40:39 2023 +0100
 Compiler: GNU Fortran 10.2.0; Optimisation: fast
 Comms   : Open MPI v4.0.5
 MATHLIBS: openblas (LAPACK version 3.9.0)
 FFT Lib : fftw3 version fftw-3.3.8-sse2-avx-avx2-avx2_128
 Fundamental constants values: CODATA 2018

 Run started: Wed, 07 Feb 2024 14:36:19 +0000

 Atomic calculation performed for Al: 1s2 2s2 2p6 3s2 3p1

 Converged in 54 iterations to an ae energy of -6603.783 eV

   ============================================================                
   | Pseudopotential Report - Date of generation  7-02-2024   |                
   ------------------------------------------------------------                
   | Element: Al Ionic charge:  3.00 Level of theory: PBE     |                
   | Atomic Solver: Koelling-Harmon                           |                
   |                                                          |                
   |               Reference Electronic Structure             |                
   |         Orbital         Occupation         Energy        |                
   |            3s              2.000           -0.285        |                
   |            3p              1.000           -0.100        |                
   |                                                          |                
   |                 Pseudopotential Definition               |                
   |        Beta     l      e      Rc     scheme   norm       |                
   |          1      0   -0.285   2.192     qc      0         |                
   |          2      0    0.250   2.192     qc      0         |                
   |          3      1   -0.100   2.192     qc      0         |                
   |          4      1    0.250   2.192     qc      0         |                
   |          5      2    0.000   2.000     qc      0         |                
   |          6      2    0.250   2.000     qc      0         |                
   |         loc     3    0.000   2.192     pn      0         |                
   |                                                          |                
   | Augmentation charge Rinner = 1.398                       |                
   | Partial core correction Rc = 1.398                       |                
   ------------------------------------------------------------                
   | "3|2.2|2.2|1.4|4|5|5|30:31:32U2U2"                       |                
   ------------------------------------------------------------                
   |      Author: Chris J. Pickard, Cambridge University      |                
   ============================================================                

 Atomic calculation performed for Ti: 1s2 2s2 2p6 3s2 3p6 3d2 4s2

 Converged in 79 iterations to an ae energy of -23226.658 eV

   ============================================================                
   | Pseudopotential Report - Date of generation  7-02-2024   |                
   ------------------------------------------------------------                
   | Element: Ti Ionic charge: 12.00 Level of theory: PBE     |                
   | Atomic Solver: Koelling-Harmon                           |                
   |                                                          |                
   |               Reference Electronic Structure             |                
   |         Orbital         Occupation         Energy        |                
   |            3s              2.000           -2.302        |                
   |            3p              6.000           -1.428        |                
   |            4s              2.000           -0.164        |                
   |            3d              2.000           -0.157        |                
   |                                                          |                
   |                 Pseudopotential Definition               |                
   |        Beta     l      e      Rc     scheme   norm       |                
   |          1      0   -2.302   1.793     qc      0         |                
   |          2      0   -0.164   1.793     qc      0         |                
   |          3      0    0.250   1.793     qc      0         |                
   |          4      1   -1.428   1.793     qc      0         |                
   |          5      1    0.250   1.793     qc      0         |                
   |          6      2   -0.157   1.793     qc      0         |                
   |          7      2    0.250   1.793     qc      0         |                
   |         loc     3    0.000   1.793     pn      0         |                
   |                                                          |                
   | Augmentation charge Rinner = 1.263                       |                
   | Partial core correction Rc = 1.263                       |                
   ------------------------------------------------------------                
   | "3|1.8|9|10|11|30U:40:31:32(qc=5.5)"                     |                
   ------------------------------------------------------------                
   |      Author: Chris J. Pickard, Cambridge University      |                
   ============================================================                

 Atomic calculation performed for V: 1s2 2s2 2p6 3s2 3p6 3d3 4s2

 Converged in 81 iterations to an ae energy of -25823.733 eV

   ============================================================                
   | Pseudopotential Report - Date of generation  7-02-2024   |                
   ------------------------------------------------------------                
   | Element: V Ionic charge: 13.00 Level of theory: PBE      |                
   | Atomic Solver: Koelling-Harmon                           |                
   |                                                          |                
   |               Reference Electronic Structure             |                
   |         Orbital         Occupation         Energy        |                
   |            3s              2.000           -2.581        |                
   |            3p              6.000           -1.618        |                
   |            3d              3.000           -0.190        |                
   |            4s              2.000           -0.173        |                
   |                                                          |                
   |                 Pseudopotential Definition               |                
   |        Beta     l      e      Rc     scheme   norm       |                
   |          1      0   -2.581   1.803     qc      0         |                
   |          2      0   -0.173   1.803     qc      0         |                
   |          3      0    0.250   1.803     qc      0         |                
   |          4      1   -1.618   1.803     qc      0         |                
   |          5      1    0.250   1.803     qc      0         |                
   |          6      2   -0.190   1.803     qc      0         |                
   |          7      2    0.250   1.803     qc      0         |                
   |         loc     3    0.000   1.803     pn      0         |                
   |                                                          |                
   | Augmentation charge Rinner = 0.600                       |                
   | Partial core correction Rc = 0.600                       |                
   ------------------------------------------------------------                
   | "3|1.8|1.8|0.6|12|14|16|30U:40:31:32(qc=7)"              |                
   ------------------------------------------------------------                
   |      Author: Chris J. Pickard, Cambridge University      |                
   ============================================================                

 Pseudo atomic calculation performed for Al 3s2 3p1

 Converged in 15 iterations to a total energy of -107.1308 eV

 Pseudo atomic calculation performed for Ti 3s2 3p6 3d2 4s2

 Converged in 34 iterations to a total energy of -1587.0236 eV

 Pseudo atomic calculation performed for V 3s2 3p6 3d3 4s2

 Converged in 35 iterations to a total energy of -2065.7874 eV
 Calculation parallelised over 336 processes.
 Data is distributed by G-vector(24-way) and k-point(14-way)

 ************************************ Title ************************************
 

 ***************************** General Parameters ******************************
  
 output verbosity                               : normal  (1)
 write checkpoint data to                       : sqs_hcp_sc3x3x3_Ti46Al6V2_frame0_01.check
 type of calculation                            : single point energy
 stress calculation                             : on
 density difference calculation                 : off
 electron localisation func (ELF) calculation   : off
 Hirshfeld analysis                             : off
 polarisation (Berry phase) analysis            : off
 molecular orbital projected DOS                : off
 deltaSCF calculation                           : off
 unlimited duration calculation
 timing information                             : on
 memory usage estimate                          : on
 write extra output files                       : on
 write final potential to formatted file        : off
 write final density to formatted file          : off
 write BibTeX reference list                    : on
 write OTFG pseudopotential files               : on
 write electrostatic potential file             : on
 write bands file                               : on
 checkpoint writing                             : off
  
 output         length unit                     : A
 output           mass unit                     : amu
 output           time unit                     : ps
 output         charge unit                     : e
 output           spin unit                     : hbar/2
 output         energy unit                     : eV
 output          force unit                     : eV/A
 output       velocity unit                     : A/ps
 output       pressure unit                     : GPa
 output     inv_length unit                     : 1/A
 output      frequency unit                     : cm-1
 output force constant unit                     : eV/A**2
 output         volume unit                     : A**3
 output   IR intensity unit                     : (D/A)**2/amu
 output         dipole unit                     : D
 output         efield unit                     : eV/A/e
 output        entropy unit                     : J/mol/K
 output    efield chi2 unit                     : pm/V
  
 wavefunctions paging                           : none
 random number generator seed                   :  143619528
 data distribution                              : k-point only
 optimization strategy                          : maximize speed(+++)

 *********************** Exchange-Correlation Parameters ***********************
  
 using functional                               : Perdew Burke Ernzerhof
 relativistic treatment                         : Koelling-Harmon
 DFT+D: Semi-empirical dispersion correction    : off

 ************************* Pseudopotential Parameters **************************
  
 pseudopotential representation                 : reciprocal space
 <beta|phi> representation                      : reciprocal space
 spin-orbit coupling                            : off

 **************************** Basis Set Parameters *****************************
  
 plane wave basis set cut-off                   :   800.0000   eV
 size of standard grid                          :     2.0000
 size of   fine   gmax                          :    28.9810   1/A
 largest prime factor in FFT                    :          5
 finite basis set correction                    : automatic
 number of sample energies                      :          3
           sample  spacing                      :     5.0000   eV

 **************************** Electronic Parameters ****************************
  
 number of  electrons                           :  596.0    
 net charge of system                           :  0.000    
 treating system as non-spin-polarized
 number of bands                                :        333

 ********************* Electronic Minimization Parameters **********************
  
 Method: Treating system as metallic with density mixing treatment of electrons,
         and number of  SD  steps               :          1
         and number of  CG  steps               :          4
  
 total energy / atom convergence tol.           : 0.1000E-05   eV
 eigen-energy convergence tolerance             : 0.1622E-06   eV
 max force / atom convergence tol.              : ignored
 convergence tolerance window                   :          3   cycles
 max. number of SCF cycles                      :         30
 number of fixed-spin iterations                :         10
 smearing scheme                                : Gaussian
 smearing width                                 : 0.5000E-01   eV
 Fermi energy convergence tolerance             : 0.2721E-13   eV
 periodic dipole correction                     : NONE

 ************************** Density Mixing Parameters **************************
  
 density-mixing scheme                          : Pulay
 max. length of mixing history                  :         20
 charge density mixing amplitude                : 0.8000    
 cut-off energy for mixing                      :  800.0       eV
 charge density mixing g-vector                 :  1.500       1/A

 *********************** Population Analysis Parameters ************************
  
 Population analysis with cutoff                :  3.000       A
 Population analysis output                     : summary and pdos components

 ******************************* Developer Code ********************************
  
 PARALLEL: kpoint=14 : ENDPARALLEL
 no_improve_wvfn

 *******************************************************************************
  

                           -------------------------------
                                      Unit Cell
                           -------------------------------
        Real Lattice(A)                      Reciprocal Lattice(1/A)
     4.3693630    -7.5679570     0.0000100        0.719004728  -0.415117667   0.000003532
     4.3693630     7.5679570     0.0000440        0.719004728   0.415117667   0.000005464
    -0.0000860    -0.0000320    13.7478180       -0.000002824  -0.000001027   0.457031458

                       Lattice parameters(A)       Cell Angles
                    a =      8.738725          alpha =   90.000006
                    b =      8.738725          beta  =   89.999998
                    c =     13.747818          gamma =  119.999989

                       Current cell volume =           909.202356       A**3
                                   density =             2.711887   AMU/A**3
                                           =             4.503195     g/cm^3

                           -------------------------------
                                     Cell Contents
                           -------------------------------
                         Total number of ions in cell =   54
                      Total number of species in cell =    3
                        Max number of any one species =   46

            xxxxxxxxxxxxxxxxxxxxxxxxxxxxxxxxxxxxxxxxxxxxxxxxxxxxxxxxxxxx
            x  Element    Atom        Fractional coordinates of atoms  x
            x            Number           u          v          w      x
            x----------------------------------------------------------x
            x  Al           1         0.219996   0.444907   0.915446   x 
            x  Al           2         0.446433   0.883893   0.751022   x 
            x  Al           3         0.886441   0.111002   0.249256   x 
            x  Al           4         0.781569   0.221083   0.751621   x 
            x  Al           5         0.885394   0.445419   0.585027   x 
            x  Al           6         0.777651   0.548866   0.750608   x 
            x  Ti           1         0.103279   0.232817   0.080418   x 
            x  Ti           2         0.216155   0.108856   0.245566   x 
            x  Ti           3         0.110011   0.219632   0.413440   x 
            x  Ti           4         0.220396   0.113283   0.584501   x 
            x  Ti           5         0.109255   0.221623   0.755627   x 
            x  Ti           6         0.219503   0.114816   0.920475   x 
            x  Ti           7         0.215066   0.447222   0.246789   x 
            x  Ti           8         0.109295   0.558598   0.418778   x 
            x  Ti           9         0.222706   0.439540   0.582768   x 
            x  Ti          10         0.115625   0.554727   0.747779   x 
            x  Ti          11         0.107393   0.880274   0.081147   x 
            x  Ti          12         0.218892   0.774872   0.249152   x 
            x  Ti          13         0.113514   0.892110   0.417165   x 
            x  Ti          14         0.224863   0.783578   0.586854   x 
            x  Ti          15         0.119497   0.889742   0.754157   x 
            x  Ti          16         0.229912   0.775522   0.918082   x 
            x  Ti          17         0.447801   0.220534   0.082913   x 
            x  Ti          18         0.554973   0.109054   0.251671   x 
            x  Ti          19         0.439409   0.220787   0.414680   x 
            x  Ti          20         0.555972   0.109078   0.584947   x 
            x  Ti          21         0.445984   0.216759   0.751354   x 
            x  Ti          22         0.560802   0.103085   0.915914   x 
            x  Ti          23         0.437336   0.553747   0.080761   x 
            x  Ti          24         0.555177   0.444877   0.247306   x 
            x  Ti          25         0.444371   0.556499   0.413600   x 
            x  Ti          26         0.555187   0.443536   0.581254   x 
            x  Ti          27         0.447221   0.554440   0.750740   x 
            x  Ti          28         0.551306   0.441513   0.916646   x 
            x  Ti          29         0.439201   0.889437   0.083502   x 
            x  Ti          30         0.557427   0.783178   0.248438   x 
            x  Ti          31         0.439909   0.886969   0.420472   x 
            x  Ti          32         0.549436   0.772836   0.582393   x 
            x  Ti          33         0.553858   0.778457   0.918968   x 
            x  Ti          34         0.775398   0.217811   0.083901   x 
            x  Ti          35         0.780941   0.226238   0.419536   x 
            x  Ti          36         0.898446   0.122743   0.582247   x 
            x  Ti          37         0.781084   0.557143   0.079138   x 
            x  Ti          38         0.892695   0.446386   0.249959   x 
            x  Ti          39         0.777701   0.556095   0.418633   x 
            x  Ti          40         0.895009   0.437072   0.915384   x 
            x  Ti          41         0.785430   0.896558   0.081420   x 
            x  Ti          42         0.887957   0.781146   0.250966   x 
            x  Ti          43         0.778287   0.892939   0.418009   x 
            x  Ti          44         0.892531   0.775469   0.587315   x 
            x  Ti          45         0.775386   0.893703   0.751153   x 
            x  Ti          46         0.885543   0.776190   0.913040   x 
            x  V            1         0.116433   0.560537   0.079059   x 
            x  V            2         0.888941   0.112801   0.919001   x 
            xxxxxxxxxxxxxxxxxxxxxxxxxxxxxxxxxxxxxxxxxxxxxxxxxxxxxxxxxxxx


                         No user defined ionic velocities

                           -------------------------------
                                   Details of Species
                           -------------------------------

                               Mass of species in AMU
                                    Al   26.9815400
                                    Ti   47.8670000
                                    V   50.9415000

                          Electric Quadrupole Moment (Barn)
                                    Al    0.1466000 Isotope 27
                                    Ti    0.3020000 Isotope 47
                                    V   -0.0520000 Isotope 51

                          Files used for pseudopotentials:
                                    Al 3|2.2|2.2|1.4|4|5|5|30:31:32U2U2
                                    Ti 3|1.8|9|10|11|30U:40:31:32(qc=5.5)
                                    V 3|1.8|1.8|0.6|12|14|16|30U:40:31:32(qc=7)

                           -------------------------------
                              k-Points For BZ Sampling
                           -------------------------------
                       MP grid size for SCF calculation is  7  7  4
                            with an offset of   0.000  0.000  0.000
                       Number of kpoints used =            98

                           -------------------------------
                               Symmetry and Constraints
                           -------------------------------

                      Maximum deviation from symmetry =  0.00000         ANG

                      Number of symmetry operations   =           1
                      Number of ionic constraints     =           3
                      Point group of crystal =     1: C1, 1, 1
                      Space group of crystal =     1: P1, P 1

             Set iprint > 1 for details on symmetry rotations/translations

                         Centre of mass is constrained
             Set iprint > 1 for details of linear ionic constraints

                         Number of cell constraints= 0
                         Cell constraints are:  1 2 3 4 5 6

                         External pressure/stress (GPa)
                          0.00000   0.00000   0.00000
                                    0.00000   0.00000
                                              0.00000
 
+---------------- MEMORY AND SCRATCH DISK ESTIMATES PER PROCESS --------------+
|                                                     Memory          Disk    |
| Baseline code, static data and system overhead      591.0 MB         0.0 MB |
| BLAS internal memory storage                          0.0 MB         0.0 MB |
| Model and support data                              546.8 MB         0.0 MB |
| Electronic energy minimisation requirements         182.5 MB         0.0 MB |
| Force calculation requirements                        6.8 MB         0.0 MB |
| Stress calculation requirements                       7.3 MB         0.0 MB |
|                                               ----------------------------- |
| Approx. total storage required per process         1320.3 MB         0.0 MB |
|                                                                             |
| Requirements will fluctuate during execution and may exceed these estimates |
+-----------------------------------------------------------------------------+
Calculating finite basis set correction with  3 cut-off energies.
Calculating total energy with cut-off of  790.000 eV.
------------------------------------------------------------------------ <-- SCF
SCF loop      Energy           Fermi           Energy gain       Timer   <-- SCF
                               energy          per atom          (sec)   <-- SCF
------------------------------------------------------------------------ <-- SCF
Initial  -7.02260415E+004  0.00000000E+000                        25.14  <-- SCF
      1  -7.61446541E+004  1.16890073E+001   1.09603936E+002      94.95  <-- SCF
      2  -7.80217186E+004  9.35839065E+000   3.47604544E+001     153.43  <-- SCF
      3  -7.81363961E+004  9.07690357E+000   2.12365783E+000     213.30  <-- SCF
      4  -7.81414618E+004  8.29160502E+000   9.38084300E-002     279.03  <-- SCF
      5  -7.81424258E+004  8.45931989E+000   1.78513650E-002     351.97  <-- SCF
      6  -7.81363328E+004  8.63779935E+000  -1.12833500E-001     418.38  <-- SCF
      7  -7.81346123E+004  8.62446015E+000  -3.18603283E-002     489.90  <-- SCF
      8  -7.81346617E+004  8.57614636E+000   9.13867839E-004     557.32  <-- SCF
      9  -7.81345237E+004  8.56951403E+000  -2.55428071E-003     625.12  <-- SCF
     10  -7.81345296E+004  8.57060403E+000   1.09134523E-004     694.53  <-- SCF
     11  -7.81344625E+004  8.56956161E+000  -1.24382123E-003     760.25  <-- SCF
     12  -7.81344672E+004  8.56890529E+000   8.84943428E-005     828.10  <-- SCF
     13  -7.81344635E+004  8.56851660E+000  -6.83771871E-005     890.77  <-- SCF
     14  -7.81344638E+004  8.56858527E+000   5.49080305E-006     949.22  <-- SCF
     15  -7.81344635E+004  8.56862080E+000  -5.67005082E-006    1001.78  <-- SCF
     16  -7.81344635E+004  8.56862839E+000   1.60797229E-008    1042.03  <-- SCF
     17  -7.81344635E+004  8.56865207E+000  -1.80190975E-007    1081.44  <-- SCF
------------------------------------------------------------------------ <-- SCF
 
Final energy, E             =  -78134.39307325     eV
Final free energy (E-TS)    =  -78134.46352342     eV
(energies not corrected for finite basis set)
 
NB est. 0K energy (E-0.5TS)      =  -78134.42829834     eV
 
Calculating total energy with cut-off of  795.000 eV.
------------------------------------------------------------------------ <-- SCF
SCF loop      Energy           Fermi           Energy gain       Timer   <-- SCF
                               energy          per atom          (sec)   <-- SCF
------------------------------------------------------------------------ <-- SCF
Initial  -7.81343930E+004  0.00000000E+000                      1091.87  <-- SCF
      1  -7.81344648E+004  8.56871507E+000   1.32898711E-003    1143.82  <-- SCF
      2  -7.81344649E+004  8.56871353E+000   2.10486094E-006    1195.10  <-- SCF
      3  -7.81344826E+004  8.56734056E+000   3.27716190E-004    1259.54  <-- SCF
      4  -7.81344649E+004  8.56913564E+000  -3.28482144E-004    1322.52  <-- SCF
      5  -7.81344644E+004  8.56870808E+000  -8.30954341E-006    1382.18  <-- SCF
      6  -7.81344645E+004  8.56859591E+000   4.95672526E-007    1428.31  <-- SCF
      7  -7.81344645E+004  8.56864336E+000  -2.71652677E-008    1467.09  <-- SCF
------------------------------------------------------------------------ <-- SCF
 
Final energy, E             =  -78134.39400503     eV
Final free energy (E-TS)    =  -78134.46446341     eV
(energies not corrected for finite basis set)
 
NB est. 0K energy (E-0.5TS)      =  -78134.42923422     eV
 
Calculating total energy with cut-off of  800.000 eV.
------------------------------------------------------------------------ <-- SCF
SCF loop      Energy           Fermi           Energy gain       Timer   <-- SCF
                               energy          per atom          (sec)   <-- SCF
------------------------------------------------------------------------ <-- SCF
Initial  -7.81343939E+004  0.00000000E+000                      1477.57  <-- SCF
      1  -7.81344705E+004  8.56820998E+000   1.41924903E-003    1536.45  <-- SCF
      2  -7.81344707E+004  8.56820853E+000   2.61916894E-006    1590.93  <-- SCF
      3  -7.81346656E+004  8.57199091E+000   3.60987252E-003    1656.52  <-- SCF
      4  -7.81344733E+004  8.56653599E+000  -3.56147942E-003    1722.52  <-- SCF
      5  -7.81344647E+004  8.56882681E+000  -1.58675380E-004    1784.75  <-- SCF
      6  -7.81344658E+004  8.56886853E+000   1.95665294E-005    1845.78  <-- SCF
      7  -7.81344654E+004  8.56857366E+000  -6.74069066E-006    1902.28  <-- SCF
      8  -7.81344654E+004  8.56863762E+000  -1.27974612E-006    1944.48  <-- SCF
      9  -7.81344653E+004  8.56865710E+000  -2.17392263E-007    1984.36  <-- SCF
     10  -7.81344653E+004  8.56864549E+000  -1.32246956E-008    2023.64  <-- SCF
------------------------------------------------------------------------ <-- SCF
 
Final energy, E             =  -78134.39490020     eV
Final free energy (E-TS)    =  -78134.46534658     eV
(energies not corrected for finite basis set)
 
NB est. 0K energy (E-0.5TS)      =  -78134.43012339     eV
 
 For future reference: finite basis dEtot/dlog(Ecut) =      -0.144202eV
 Total energy corrected for finite basis set =  -78134.465344 eV

 ************************** Forces **************************
 *                                                          *
 *               Cartesian components (eV/A)                *
 * -------------------------------------------------------- *
 *                         x            y            z      *
 *                                                          *
 * Al              1      0.05773     -0.00110      0.06205 *
 * Al              2     -0.01068     -0.04321     -0.07479 *
 * Al              3      0.00437     -0.00985      0.09307 *
 * Al              4     -0.04714      0.03521     -0.06406 *
 * Al              5     -0.05068     -0.04872      0.07808 *
 * Al              6      0.04366      0.10790      0.03017 *
 * Ti              1     -0.02562      0.05135     -0.01239 *
 * Ti              2     -0.01402      0.05574     -0.00659 *
 * Ti              3     -0.00552     -0.01872     -0.00099 *
 * Ti              4     -0.01567      0.01677     -0.03645 *
 * Ti              5      0.01432     -0.05005     -0.10907 *
 * Ti              6      0.06945      0.03984      0.02998 *
 * Ti              7     -0.06036      0.03618      0.02861 *
 * Ti              8     -0.01816     -0.02626     -0.01073 *
 * Ti              9      0.02265     -0.01940      0.05019 *
 * Ti             10     -0.08781      0.04787      0.04921 *
 * Ti             11     -0.00986     -0.03640     -0.03573 *
 * Ti             12     -0.02659     -0.00002      0.02773 *
 * Ti             13      0.00828      0.01771      0.03090 *
 * Ti             14      0.02128      0.01154      0.03731 *
 * Ti             15     -0.05015      0.07950     -0.02364 *
 * Ti             16     -0.06148      0.08112     -0.02154 *
 * Ti             17      0.00938     -0.00055     -0.01583 *
 * Ti             18      0.05062     -0.01372     -0.07367 *
 * Ti             19     -0.01617      0.02992      0.04180 *
 * Ti             20     -0.02649      0.07203     -0.11275 *
 * Ti             21      0.02195     -0.03821      0.00319 *
 * Ti             22     -0.04584      0.15256      0.10676 *
 * Ti             23      0.00604      0.00110     -0.04284 *
 * Ti             24     -0.02245     -0.00939      0.00451 *
 * Ti             25      0.01738      0.00797     -0.00275 *
 * Ti             26      0.02369     -0.04764     -0.05818 *
 * Ti             27      0.08097     -0.00486      0.03687 *
 * Ti             28     -0.01346      0.01260      0.07877 *
 * Ti             29     -0.11898      0.00985      0.00350 *
 * Ti             30      0.06479     -0.01395     -0.00243 *
 * Ti             31     -0.03483     -0.00228     -0.09170 *
 * Ti             32     -0.02978     -0.04313     -0.02784 *
 * Ti             33      0.01243     -0.09517      0.02655 *
 * Ti             34     -0.00489     -0.07327     -0.02983 *
 * Ti             35      0.01989     -0.04148     -0.03320 *
 * Ti             36     -0.00020     -0.03080     -0.02652 *
 * Ti             37     -0.01804     -0.00012      0.00603 *
 * Ti             38      0.00655     -0.07925     -0.10314 *
 * Ti             39      0.00343     -0.04023      0.09196 *
 * Ti             40      0.02553      0.08681      0.06097 *
 * Ti             41     -0.02038      0.05746     -0.00165 *
 * Ti             42      0.03081      0.02627     -0.02828 *
 * Ti             43      0.00266      0.00071     -0.05602 *
 * Ti             44     -0.04874     -0.04025     -0.05105 *
 * Ti             45     -0.05579     -0.06417     -0.03934 *
 * Ti             46     -0.00352     -0.03375      0.11529 *
 * V               1      0.09511      0.03829     -0.08189 *
 * V               2      0.23036     -0.15034      0.18138 *
 *                                                          *
 ************************************************************

 ***************** Stress Tensor *****************
 *                                               *
 *          Cartesian components (GPa)           *
 * --------------------------------------------- *
 *             x             y             z     *
 *                                               *
 *  x     -0.820402     -0.058330     -0.205026  *
 *  y     -0.058330     -0.657096     -0.057515  *
 *  z     -0.205026     -0.057515     -2.059759  *
 *                                               *
 *  Pressure:    1.1791                          *
 *                                               *
 *************************************************

 Pseudo atomic calculation performed for Al 3s2 3p1

 Converged in 15 iterations to a total energy of -107.1308 eV

 Pseudo atomic calculation performed for Ti 3s2 3p6 3d2 4s2

 Converged in 34 iterations to a total energy of -1587.0236 eV

 Pseudo atomic calculation performed for V 3s2 3p6 3d3 4s2

 Converged in 35 iterations to a total energy of -2065.7874 eV
Charge spilling parameter for spin component 1 = 0.09%

            Orbital Populations       
     Ion    Atom   Orbital             Charge
  -------------------------------------------
     Al     1      S                    0.922
     Al     1      Px                   0.682
     Al     1      Py                   0.688
     Al     1      Pz                   0.711
     Al     2      S                    0.940
     Al     2      Px                   0.646
     Al     2      Py                   0.705
     Al     2      Pz                   0.714
     Al     3      S                    0.929
     Al     3      Px                   0.691
     Al     3      Py                   0.686
     Al     3      Pz                   0.716
     Al     4      S                    0.958
     Al     4      Px                   0.659
     Al     4      Py                   0.681
     Al     4      Pz                   0.688
     Al     5      S                    0.954
     Al     5      Px                   0.700
     Al     5      Py                   0.702
     Al     5      Pz                   0.651
     Al     6      S                    0.960
     Al     6      Px                   0.682
     Al     6      Py                   0.656
     Al     6      Pz                   0.694
     Ti     1      S                    2.003
     Ti     1      Px                   2.006
     Ti     1      Py                   2.005
     Ti     1      Pz                   2.007
     Ti     1      S                    0.294
     Ti     1      Dzz                  0.609
     Ti     1      Dzy                  0.465
     Ti     1      Dzx                  0.518
     Ti     1      Dxx-yy               0.572
     Ti     1      Dxy                  0.568
     Ti     1      Px                   0.321
     Ti     1      Py                   0.321
     Ti     1      Pz                   0.282
     Ti     2      S                    2.003
     Ti     2      Px                   2.005
     Ti     2      Py                   2.005
     Ti     2      Pz                   2.005
     Ti     2      S                    0.307
     Ti     2      Dzz                  0.598
     Ti     2      Dzy                  0.476
     Ti     2      Dzx                  0.504
     Ti     2      Dxx-yy               0.573
     Ti     2      Dxy                  0.570
     Ti     2      Px                   0.322
     Ti     2      Py                   0.315
     Ti     2      Pz                   0.310
     Ti     3      S                    2.004
     Ti     3      Px                   2.006
     Ti     3      Py                   2.006
     Ti     3      Pz                   2.006
     Ti     3      S                    0.296
     Ti     3      Dzz                  0.616
     Ti     3      Dzy                  0.492
     Ti     3      Dzx                  0.467
     Ti     3      Dxx-yy               0.575
     Ti     3      Dxy                  0.565
     Ti     3      Px                   0.319
     Ti     3      Py                   0.332
     Ti     3      Pz                   0.297
     Ti     4      S                    2.003
     Ti     4      Px                   2.006
     Ti     4      Py                   2.006
     Ti     4      Pz                   2.006
     Ti     4      S                    0.292
     Ti     4      Dzz                  0.617
     Ti     4      Dzy                  0.487
     Ti     4      Dzx                  0.463
     Ti     4      Dxx-yy               0.576
     Ti     4      Dxy                  0.565
     Ti     4      Px                   0.328
     Ti     4      Py                   0.337
     Ti     4      Pz                   0.333
     Ti     5      S                    2.003
     Ti     5      Px                   2.005
     Ti     5      Py                   2.005
     Ti     5      Pz                   2.006
     Ti     5      S                    0.297
     Ti     5      Dzz                  0.627
     Ti     5      Dzy                  0.497
     Ti     5      Dzx                  0.468
     Ti     5      Dxx-yy               0.587
     Ti     5      Dxy                  0.533
     Ti     5      Px                   0.324
     Ti     5      Py                   0.293
     Ti     5      Pz                   0.314
     Ti     6      S                    2.003
     Ti     6      Px                   2.005
     Ti     6      Py                   2.005
     Ti     6      Pz                   2.006
     Ti     6      S                    0.304
     Ti     6      Dzz                  0.595
     Ti     6      Dzy                  0.506
     Ti     6      Dzx                  0.484
     Ti     6      Dxx-yy               0.568
     Ti     6      Dxy                  0.566
     Ti     6      Px                   0.320
     Ti     6      Py                   0.324
     Ti     6      Pz                   0.315
     Ti     7      S                    2.003
     Ti     7      Px                   2.005
     Ti     7      Py                   2.006
     Ti     7      Pz                   2.005
     Ti     7      S                    0.308
     Ti     7      Dzz                  0.590
     Ti     7      Dzy                  0.512
     Ti     7      Dzx                  0.481
     Ti     7      Dxx-yy               0.531
     Ti     7      Dxy                  0.602
     Ti     7      Px                   0.300
     Ti     7      Py                   0.341
     Ti     7      Pz                   0.325
     Ti     8      S                    2.003
     Ti     8      Px                   2.006
     Ti     8      Py                   2.006
     Ti     8      Pz                   2.006
     Ti     8      S                    0.301
     Ti     8      Dzz                  0.622
     Ti     8      Dzy                  0.465
     Ti     8      Dzx                  0.482
     Ti     8      Dxx-yy               0.571
     Ti     8      Dxy                  0.577
     Ti     8      Px                   0.324
     Ti     8      Py                   0.331
     Ti     8      Pz                   0.285
     Ti     9      S                    2.003
     Ti     9      Px                   2.006
     Ti     9      Py                   2.005
     Ti     9      Pz                   2.005
     Ti     9      S                    0.312
     Ti     9      Dzz                  0.595
     Ti     9      Dzy                  0.459
     Ti     9      Dzx                  0.522
     Ti     9      Dxx-yy               0.552
     Ti     9      Dxy                  0.572
     Ti     9      Px                   0.326
     Ti     9      Py                   0.309
     Ti     9      Pz                   0.326
     Ti    10      S                    2.003
     Ti    10      Px                   2.006
     Ti    10      Py                   2.006
     Ti    10      Pz                   2.006
     Ti    10      S                    0.327
     Ti    10      Dzz                  0.627
     Ti    10      Dzy                  0.496
     Ti    10      Dzx                  0.490
     Ti    10      Dxx-yy               0.541
     Ti    10      Dxy                  0.610
     Ti    10      Px                   0.275
     Ti    10      Py                   0.308
     Ti    10      Pz                   0.305
     Ti    11      S                    2.004
     Ti    11      Px                   2.006
     Ti    11      Py                   2.006
     Ti    11      Pz                   2.006
     Ti    11      S                    0.303
     Ti    11      Dzz                  0.602
     Ti    11      Dzy                  0.504
     Ti    11      Dzx                  0.468
     Ti    11      Dxx-yy               0.575
     Ti    11      Dxy                  0.566
     Ti    11      Px                   0.331
     Ti    11      Py                   0.342
     Ti    11      Pz                   0.315
     Ti    12      S                    2.003
     Ti    12      Px                   2.006
     Ti    12      Py                   2.006
     Ti    12      Pz                   2.006
     Ti    12      S                    0.285
     Ti    12      Dzz                  0.621
     Ti    12      Dzy                  0.464
     Ti    12      Dzx                  0.472
     Ti    12      Dxx-yy               0.577
     Ti    12      Dxy                  0.575
     Ti    12      Px                   0.330
     Ti    12      Py                   0.326
     Ti    12      Pz                   0.340
     Ti    13      S                    2.004
     Ti    13      Px                   2.006
     Ti    13      Py                   2.006
     Ti    13      Pz                   2.006
     Ti    13      S                    0.299
     Ti    13      Dzz                  0.599
     Ti    13      Dzy                  0.484
     Ti    13      Dzx                  0.477
     Ti    13      Dxx-yy               0.571
     Ti    13      Dxy                  0.567
     Ti    13      Px                   0.329
     Ti    13      Py                   0.337
     Ti    13      Pz                   0.311
     Ti    14      S                    2.003
     Ti    14      Px                   2.006
     Ti    14      Py                   2.006
     Ti    14      Pz                   2.007
     Ti    14      S                    0.312
     Ti    14      Dzz                  0.620
     Ti    14      Dzy                  0.495
     Ti    14      Dzx                  0.491
     Ti    14      Dxx-yy               0.539
     Ti    14      Dxy                  0.584
     Ti    14      Px                   0.291
     Ti    14      Py                   0.344
     Ti    14      Pz                   0.300
     Ti    15      S                    2.003
     Ti    15      Px                   2.005
     Ti    15      Py                   2.005
     Ti    15      Pz                   2.006
     Ti    15      S                    0.321
     Ti    15      Dzz                  0.585
     Ti    15      Dzy                  0.483
     Ti    15      Dzx                  0.528
     Ti    15      Dxx-yy               0.546
     Ti    15      Dxy                  0.583
     Ti    15      Px                   0.285
     Ti    15      Py                   0.322
     Ti    15      Pz                   0.329
     Ti    16      S                    2.003
     Ti    16      Px                   2.006
     Ti    16      Py                   2.006
     Ti    16      Pz                   2.007
     Ti    16      S                    0.294
     Ti    16      Dzz                  0.606
     Ti    16      Dzy                  0.496
     Ti    16      Dzx                  0.488
     Ti    16      Dxx-yy               0.588
     Ti    16      Dxy                  0.553
     Ti    16      Px                   0.325
     Ti    16      Py                   0.300
     Ti    16      Pz                   0.297
     Ti    17      S                    2.003
     Ti    17      Px                   2.006
     Ti    17      Py                   2.006
     Ti    17      Pz                   2.006
     Ti    17      S                    0.300
     Ti    17      Dzz                  0.600
     Ti    17      Dzy                  0.506
     Ti    17      Dzx                  0.471
     Ti    17      Dxx-yy               0.579
     Ti    17      Dxy                  0.557
     Ti    17      Px                   0.330
     Ti    17      Py                   0.346
     Ti    17      Pz                   0.317
     Ti    18      S                    2.003
     Ti    18      Px                   2.006
     Ti    18      Py                   2.006
     Ti    18      Pz                   2.006
     Ti    18      S                    0.308
     Ti    18      Dzz                  0.623
     Ti    18      Dzy                  0.497
     Ti    18      Dzx                  0.468
     Ti    18      Dxx-yy               0.600
     Ti    18      Dxy                  0.540
     Ti    18      Px                   0.335
     Ti    18      Py                   0.304
     Ti    18      Pz                   0.314
     Ti    19      S                    2.003
     Ti    19      Px                   2.006
     Ti    19      Py                   2.006
     Ti    19      Pz                   2.006
     Ti    19      S                    0.303
     Ti    19      Dzz                  0.594
     Ti    19      Dzy                  0.481
     Ti    19      Dzx                  0.493
     Ti    19      Dxx-yy               0.562
     Ti    19      Dxy                  0.577
     Ti    19      Px                   0.333
     Ti    19      Py                   0.333
     Ti    19      Pz                   0.322
     Ti    20      S                    2.003
     Ti    20      Px                   2.006
     Ti    20      Py                   2.005
     Ti    20      Pz                   2.006
     Ti    20      S                    0.312
     Ti    20      Dzz                  0.592
     Ti    20      Dzy                  0.503
     Ti    20      Dzx                  0.497
     Ti    20      Dxx-yy               0.542
     Ti    20      Dxy                  0.600
     Ti    20      Px                   0.292
     Ti    20      Py                   0.331
     Ti    20      Pz                   0.278
     Ti    21      S                    2.003
     Ti    21      Px                   2.005
     Ti    21      Py                   2.005
     Ti    21      Pz                   2.005
     Ti    21      S                    0.343
     Ti    21      Dzz                  0.608
     Ti    21      Dzy                  0.482
     Ti    21      Dzx                  0.502
     Ti    21      Dxx-yy               0.544
     Ti    21      Dxy                  0.586
     Ti    21      Px                   0.285
     Ti    21      Py                   0.312
     Ti    21      Pz                   0.335
     Ti    22      S                    2.003
     Ti    22      Px                   2.006
     Ti    22      Py                   2.005
     Ti    22      Pz                   2.006
     Ti    22      S                    0.294
     Ti    22      Dzz                  0.622
     Ti    22      Dzy                  0.474
     Ti    22      Dzx                  0.484
     Ti    22      Dxx-yy               0.569
     Ti    22      Dxy                  0.573
     Ti    22      Px                   0.325
     Ti    22      Py                   0.331
     Ti    22      Pz                   0.276
     Ti    23      S                    2.003
     Ti    23      Px                   2.005
     Ti    23      Py                   2.005
     Ti    23      Pz                   2.006
     Ti    23      S                    0.293
     Ti    23      Dzz                  0.616
     Ti    23      Dzy                  0.484
     Ti    23      Dzx                  0.492
     Ti    23      Dxx-yy               0.561
     Ti    23      Dxy                  0.569
     Ti    23      Px                   0.323
     Ti    23      Py                   0.336
     Ti    23      Pz                   0.294
     Ti    24      S                    2.003
     Ti    24      Px                   2.005
     Ti    24      Py                   2.005
     Ti    24      Pz                   2.005
     Ti    24      S                    0.300
     Ti    24      Dzz                  0.617
     Ti    24      Dzy                  0.475
     Ti    24      Dzx                  0.480
     Ti    24      Dxx-yy               0.558
     Ti    24      Dxy                  0.570
     Ti    24      Px                   0.333
     Ti    24      Py                   0.331
     Ti    24      Pz                   0.325
     Ti    25      S                    2.004
     Ti    25      Px                   2.006
     Ti    25      Py                   2.006
     Ti    25      Pz                   2.006
     Ti    25      S                    0.297
     Ti    25      Dzz                  0.607
     Ti    25      Dzy                  0.488
     Ti    25      Dzx                  0.482
     Ti    25      Dxx-yy               0.568
     Ti    25      Dxy                  0.574
     Ti    25      Px                   0.335
     Ti    25      Py                   0.332
     Ti    25      Pz                   0.326
     Ti    26      S                    2.004
     Ti    26      Px                   2.006
     Ti    26      Py                   2.006
     Ti    26      Pz                   2.006
     Ti    26      S                    0.316
     Ti    26      Dzz                  0.594
     Ti    26      Dzy                  0.528
     Ti    26      Dzx                  0.471
     Ti    26      Dxx-yy               0.598
     Ti    26      Dxy                  0.544
     Ti    26      Px                   0.318
     Ti    26      Py                   0.304
     Ti    26      Pz                   0.307
     Ti    27      S                    2.003
     Ti    27      Px                   2.005
     Ti    27      Py                   2.005
     Ti    27      Pz                   2.006
     Ti    27      S                    0.311
     Ti    27      Dzz                  0.618
     Ti    27      Dzy                  0.493
     Ti    27      Dzx                  0.488
     Ti    27      Dxx-yy               0.589
     Ti    27      Dxy                  0.548
     Ti    27      Px                   0.318
     Ti    27      Py                   0.277
     Ti    27      Pz                   0.311
     Ti    28      S                    2.003
     Ti    28      Px                   2.005
     Ti    28      Py                   2.005
     Ti    28      Pz                   2.006
     Ti    28      S                    0.315
     Ti    28      Dzz                  0.605
     Ti    28      Dzy                  0.490
     Ti    28      Dzx                  0.490
     Ti    28      Dxx-yy               0.584
     Ti    28      Dxy                  0.556
     Ti    28      Px                   0.318
     Ti    28      Py                   0.320
     Ti    28      Pz                   0.300
     Ti    29      S                    2.004
     Ti    29      Px                   2.006
     Ti    29      Py                   2.006
     Ti    29      Pz                   2.007
     Ti    29      S                    0.289
     Ti    29      Dzz                  0.595
     Ti    29      Dzy                  0.484
     Ti    29      Dzx                  0.506
     Ti    29      Dxx-yy               0.563
     Ti    29      Dxy                  0.553
     Ti    29      Px                   0.348
     Ti    29      Py                   0.336
     Ti    29      Pz                   0.298
     Ti    30      S                    2.003
     Ti    30      Px                   2.006
     Ti    30      Py                   2.006
     Ti    30      Pz                   2.006
     Ti    30      S                    0.317
     Ti    30      Dzz                  0.606
     Ti    30      Dzy                  0.487
     Ti    30      Dzx                  0.481
     Ti    30      Dxx-yy               0.547
     Ti    30      Dxy                  0.606
     Ti    30      Px                   0.301
     Ti    30      Py                   0.337
     Ti    30      Pz                   0.317
     Ti    31      S                    2.004
     Ti    31      Px                   2.006
     Ti    31      Py                   2.006
     Ti    31      Pz                   2.006
     Ti    31      S                    0.298
     Ti    31      Dzz                  0.589
     Ti    31      Dzy                  0.486
     Ti    31      Dzx                  0.495
     Ti    31      Dxx-yy               0.560
     Ti    31      Dxy                  0.573
     Ti    31      Px                   0.337
     Ti    31      Py                   0.341
     Ti    31      Pz                   0.318
     Ti    32      S                    2.003
     Ti    32      Px                   2.005
     Ti    32      Py                   2.005
     Ti    32      Pz                   2.006
     Ti    32      S                    0.304
     Ti    32      Dzz                  0.605
     Ti    32      Dzy                  0.491
     Ti    32      Dzx                  0.492
     Ti    32      Dxx-yy               0.568
     Ti    32      Dxy                  0.542
     Ti    32      Px                   0.334
     Ti    32      Py                   0.322
     Ti    32      Pz                   0.299
     Ti    33      S                    2.004
     Ti    33      Px                   2.006
     Ti    33      Py                   2.007
     Ti    33      Pz                   2.006
     Ti    33      S                    0.315
     Ti    33      Dzz                  0.602
     Ti    33      Dzy                  0.494
     Ti    33      Dzx                  0.485
     Ti    33      Dxx-yy               0.556
     Ti    33      Dxy                  0.584
     Ti    33      Px                   0.304
     Ti    33      Py                   0.328
     Ti    33      Pz                   0.300
     Ti    34      S                    2.003
     Ti    34      Px                   2.005
     Ti    34      Py                   2.006
     Ti    34      Pz                   2.006
     Ti    34      S                    0.298
     Ti    34      Dzz                  0.599
     Ti    34      Dzy                  0.507
     Ti    34      Dzx                  0.475
     Ti    34      Dxx-yy               0.570
     Ti    34      Dxy                  0.552
     Ti    34      Px                   0.343
     Ti    34      Py                   0.319
     Ti    34      Pz                   0.302
     Ti    35      S                    2.003
     Ti    35      Px                   2.006
     Ti    35      Py                   2.006
     Ti    35      Pz                   2.006
     Ti    35      S                    0.303
     Ti    35      Dzz                  0.619
     Ti    35      Dzy                  0.489
     Ti    35      Dzx                  0.483
     Ti    35      Dxx-yy               0.573
     Ti    35      Dxy                  0.564
     Ti    35      Px                   0.330
     Ti    35      Py                   0.318
     Ti    35      Pz                   0.279
     Ti    36      S                    2.003
     Ti    36      Px                   2.005
     Ti    36      Py                   2.006
     Ti    36      Pz                   2.006
     Ti    36      S                    0.313
     Ti    36      Dzz                  0.595
     Ti    36      Dzy                  0.481
     Ti    36      Dzx                  0.522
     Ti    36      Dxx-yy               0.558
     Ti    36      Dxy                  0.566
     Ti    36      Px                   0.330
     Ti    36      Py                   0.305
     Ti    36      Pz                   0.314
     Ti    37      S                    2.003
     Ti    37      Px                   2.005
     Ti    37      Py                   2.005
     Ti    37      Pz                   2.005
     Ti    37      S                    0.301
     Ti    37      Dzz                  0.601
     Ti    37      Dzy                  0.478
     Ti    37      Dzx                  0.487
     Ti    37      Dxx-yy               0.561
     Ti    37      Dxy                  0.577
     Ti    37      Px                   0.333
     Ti    37      Py                   0.340
     Ti    37      Pz                   0.328
     Ti    38      S                    2.003
     Ti    38      Px                   2.005
     Ti    38      Py                   2.005
     Ti    38      Pz                   2.005
     Ti    38      S                    0.308
     Ti    38      Dzz                  0.599
     Ti    38      Dzy                  0.492
     Ti    38      Dzx                  0.478
     Ti    38      Dxx-yy               0.603
     Ti    38      Dxy                  0.538
     Ti    38      Px                   0.336
     Ti    38      Py                   0.299
     Ti    38      Pz                   0.322
     Ti    39      S                    2.003
     Ti    39      Px                   2.005
     Ti    39      Py                   2.006
     Ti    39      Pz                   2.006
     Ti    39      S                    0.301
     Ti    39      Dzz                  0.619
     Ti    39      Dzy                  0.471
     Ti    39      Dzx                  0.481
     Ti    39      Dxx-yy               0.583
     Ti    39      Dxy                  0.567
     Ti    39      Px                   0.333
     Ti    39      Py                   0.318
     Ti    39      Pz                   0.303
     Ti    40      S                    2.003
     Ti    40      Px                   2.005
     Ti    40      Py                   2.005
     Ti    40      Pz                   2.006
     Ti    40      S                    0.300
     Ti    40      Dzz                  0.625
     Ti    40      Dzy                  0.474
     Ti    40      Dzx                  0.496
     Ti    40      Dxx-yy               0.598
     Ti    40      Dxy                  0.540
     Ti    40      Px                   0.328
     Ti    40      Py                   0.286
     Ti    40      Pz                   0.292
     Ti    41      S                    2.003
     Ti    41      Px                   2.005
     Ti    41      Py                   2.006
     Ti    41      Pz                   2.006
     Ti    41      S                    0.288
     Ti    41      Dzz                  0.604
     Ti    41      Dzy                  0.485
     Ti    41      Dzx                  0.497
     Ti    41      Dxx-yy               0.565
     Ti    41      Dxy                  0.572
     Ti    41      Px                   0.319
     Ti    41      Py                   0.325
     Ti    41      Pz                   0.306
     Ti    42      S                    2.003
     Ti    42      Px                   2.006
     Ti    42      Py                   2.006
     Ti    42      Pz                   2.006
     Ti    42      S                    0.316
     Ti    42      Dzz                  0.614
     Ti    42      Dzy                  0.462
     Ti    42      Dzx                  0.501
     Ti    42      Dxx-yy               0.586
     Ti    42      Dxy                  0.565
     Ti    42      Px                   0.324
     Ti    42      Py                   0.316
     Ti    42      Pz                   0.319
     Ti    43      S                    2.003
     Ti    43      Px                   2.006
     Ti    43      Py                   2.005
     Ti    43      Pz                   2.006
     Ti    43      S                    0.301
     Ti    43      Dzz                  0.606
     Ti    43      Dzy                  0.483
     Ti    43      Dzx                  0.489
     Ti    43      Dxx-yy               0.570
     Ti    43      Dxy                  0.571
     Ti    43      Px                   0.326
     Ti    43      Py                   0.331
     Ti    43      Pz                   0.302
     Ti    44      S                    2.003
     Ti    44      Px                   2.006
     Ti    44      Py                   2.005
     Ti    44      Pz                   2.005
     Ti    44      S                    0.316
     Ti    44      Dzz                  0.602
     Ti    44      Dzy                  0.503
     Ti    44      Dzx                  0.489
     Ti    44      Dxx-yy               0.596
     Ti    44      Dxy                  0.545
     Ti    44      Px                   0.319
     Ti    44      Py                   0.303
     Ti    44      Pz                   0.317
     Ti    45      S                    2.003
     Ti    45      Px                   2.005
     Ti    45      Py                   2.005
     Ti    45      Pz                   2.005
     Ti    45      S                    0.320
     Ti    45      Dzz                  0.585
     Ti    45      Dzy                  0.507
     Ti    45      Dzx                  0.490
     Ti    45      Dxx-yy               0.631
     Ti    45      Dxy                  0.522
     Ti    45      Px                   0.336
     Ti    45      Py                   0.254
     Ti    45      Pz                   0.343
     Ti    46      S                    2.003
     Ti    46      Px                   2.005
     Ti    46      Py                   2.005
     Ti    46      Pz                   2.006
     Ti    46      S                    0.303
     Ti    46      Dzz                  0.615
     Ti    46      Dzy                  0.486
     Ti    46      Dzx                  0.492
     Ti    46      Dxx-yy               0.553
     Ti    46      Dxy                  0.573
     Ti    46      Px                   0.327
     Ti    46      Py                   0.338
     Ti    46      Pz                   0.305
      V     1      S                    2.001
      V     1      Px                   2.003
      V     1      Py                   2.003
      V     1      Pz                   2.004
      V     1      Dzz                  0.869
      V     1      Dzy                  0.642
      V     1      Dzx                  0.682
      V     1      Dxx-yy               0.759
      V     1      Dxy                  0.773
      V     1      S                    0.364
      V     1      Px                   0.342
      V     1      Py                   0.321
      V     1      Pz                   0.300
      V     2      S                    2.001
      V     2      Px                   2.003
      V     2      Py                   2.003
      V     2      Pz                   2.004
      V     2      Dzz                  0.804
      V     2      Dzy                  0.654
      V     2      Dzx                  0.748
      V     2      Dxx-yy               0.690
      V     2      Dxy                  0.837
      V     2      S                    0.372
      V     2      Px                   0.307
      V     2      Py                   0.333
      V     2      Pz                   0.294
  -------------------------------------------
                           Total:     596.000
  -------------------------------------------

     Atomic Populations (Mulliken)
     -----------------------------
Species          Ion     s       p       d       f      Total   Charge (e)
==========================================================================
  Al              1     0.922   2.081   0.000   0.000   3.003    -0.003
  Al              2     0.940   2.066   0.000   0.000   3.005    -0.005
  Al              3     0.929   2.093   0.000   0.000   3.022    -0.022
  Al              4     0.958   2.027   0.000   0.000   2.984     0.016
  Al              5     0.954   2.053   0.000   0.000   3.007    -0.007
  Al              6     0.960   2.032   0.000   0.000   2.991     0.009
  Ti              1     2.297   6.942   2.731   0.000  11.970     0.030
  Ti              2     2.310   6.963   2.721   0.000  11.994     0.006
  Ti              3     2.300   6.966   2.714   0.000  11.980     0.020
  Ti              4     2.295   7.015   2.707   0.000  12.017    -0.017
  Ti              5     2.300   6.947   2.713   0.000  11.960     0.040
  Ti              6     2.307   6.976   2.719   0.000  12.002    -0.002
  Ti              7     2.311   6.983   2.716   0.000  12.010    -0.010
  Ti              8     2.305   6.958   2.718   0.000  11.981     0.019
  Ti              9     2.315   6.978   2.700   0.000  11.992     0.008
  Ti             10     2.330   6.906   2.764   0.000  11.999     0.001
  Ti             11     2.307   7.006   2.715   0.000  12.028    -0.028
  Ti             12     2.289   7.013   2.709   0.000  12.011    -0.011
  Ti             13     2.303   6.994   2.698   0.000  11.994     0.006
  Ti             14     2.316   6.954   2.729   0.000  11.998     0.002
  Ti             15     2.324   6.952   2.725   0.000  12.001    -0.001
  Ti             16     2.297   6.941   2.730   0.000  11.968     0.032
  Ti             17     2.304   7.011   2.713   0.000  12.027    -0.027
  Ti             18     2.311   6.970   2.728   0.000  12.010    -0.010
  Ti             19     2.307   7.005   2.708   0.000  12.019    -0.019
  Ti             20     2.315   6.918   2.733   0.000  11.966     0.034
  Ti             21     2.346   6.947   2.723   0.000  12.016    -0.016
  Ti             22     2.297   6.949   2.721   0.000  11.967     0.033
  Ti             23     2.296   6.970   2.722   0.000  11.988     0.012
  Ti             24     2.303   7.004   2.700   0.000  12.007    -0.007
  Ti             25     2.300   7.010   2.719   0.000  12.030    -0.030
  Ti             26     2.319   6.947   2.735   0.000  12.002    -0.002
  Ti             27     2.314   6.922   2.737   0.000  11.973     0.027
  Ti             28     2.318   6.955   2.725   0.000  11.998     0.002
  Ti             29     2.293   7.001   2.701   0.000  11.995     0.005
  Ti             30     2.321   6.972   2.727   0.000  12.020    -0.020
  Ti             31     2.301   7.013   2.702   0.000  12.017    -0.017
  Ti             32     2.307   6.971   2.698   0.000  11.976     0.024
  Ti             33     2.319   6.951   2.721   0.000  11.990     0.010
  Ti             34     2.301   6.981   2.704   0.000  11.986     0.014
  Ti             35     2.306   6.944   2.728   0.000  11.979     0.021
  Ti             36     2.316   6.966   2.722   0.000  12.004    -0.004
  Ti             37     2.304   7.015   2.704   0.000  12.023    -0.023
  Ti             38     2.311   6.973   2.710   0.000  11.994     0.006
  Ti             39     2.304   6.971   2.721   0.000  11.995     0.005
  Ti             40     2.302   6.922   2.732   0.000  11.957     0.043
  Ti             41     2.291   6.967   2.722   0.000  11.981     0.019
  Ti             42     2.319   6.976   2.728   0.000  12.023    -0.023
  Ti             43     2.304   6.975   2.719   0.000  11.998     0.002
  Ti             44     2.319   6.955   2.735   0.000  12.008    -0.008
  Ti             45     2.322   6.949   2.735   0.000  12.005    -0.005
  Ti             46     2.306   6.986   2.720   0.000  12.011    -0.011
  V               1     2.365   6.973   3.725   0.000  13.063    -0.063
  V               2     2.374   6.945   3.733   0.000  13.052    -0.052
==========================================================================

                 Bond                   Population      Length (A)
======================================================================
             Ti 16 -- V 1                    0.23        2.74729
             Ti 1  -- V 2                    0.19        2.75107
             Ti 41 -- V 2                    0.21        2.76870
              Al 1 -- Ti 5                   0.22        2.77183
             Ti 16 -- Ti 29                  0.14        2.77256
              Al 1 -- Ti 1                   0.22        2.78008
              Al 5 -- Al 6                   0.29        2.78150
              Al 4 -- Ti 40                  0.26        2.78261
             Ti 35 -- Ti 36                  0.16        2.79372
              Al 1 -- V 1                    0.22        2.79535
             Ti 31 -- Ti 32                  0.14        2.79657
             Ti 5  -- V 2                    0.17        2.79728
             Ti 26 -- Ti 39                  0.14        2.79896
             Ti 5  -- Ti 6                   0.11        2.79905
             Ti 23 -- Ti 33                  0.15        2.80015
             Ti 9  -- Ti 36                  0.21        2.80159
             Ti 14 -- Ti 15                  0.13        2.80231
             Ti 1  -- Ti 34                  0.19        2.80241
             Ti 1  -- Ti 7                   0.13        2.80463
              Al 1 -- Ti 23                  0.23        2.80548
              Al 1 -- Ti 40                  0.24        2.80636
             Ti 34 -- V 2                    0.17        2.80650
             Ti 22 -- Ti 33                  0.23        2.80730
             Ti 14 -- Ti 31                  0.16        2.80750
             Ti 40 -- V 1                    0.21        2.80781
             Ti 40 -- V 2                    0.15        2.80802
             Ti 1  -- V 1                    0.25        2.80821
              Al 3 -- Ti 34                  0.22        2.80826
              Al 2 -- Ti 22                  0.21        2.80933
             Ti 7  -- V 1                    0.18        2.80967
             Ti 10 -- Ti 14                  0.19        2.81002
              Al 4 -- Ti 22                  0.23        2.81024
             Ti 27 -- Ti 28                  0.14        2.81088
             Ti 15 -- Ti 46                  0.15        2.81192
              Al 2 -- Ti 14                  0.21        2.81318
             Ti 7  -- Ti 38                  0.17        2.81380
             Ti 45 -- Ti 46                  0.13        2.81479
              Al 2 -- Ti 33                  0.25        2.81534
              Al 5 -- Ti 35                  0.23        2.81598
             Ti 22 -- Ti 29                  0.15        2.81767
             Ti 20 -- Ti 31                  0.13        2.81785
              Al 1 -- Ti 10                  0.24        2.81806
             Ti 16 -- Ti 33                  0.15        2.81816
             Ti 20 -- Ti 21                  0.21        2.81912
              Al 6 -- Ti 46                  0.24        2.81938
             Ti 3  -- Ti 36                  0.13        2.82053
              Al 3 -- Ti 3                   0.21        2.82105
              Al 4 -- V 2                    0.22        2.82112
              Al 2 -- Ti 16                  0.23        2.82134
              Al 3 -- Ti 41                  0.22        2.82148
              Al 5 -- Ti 39                  0.23        2.82209
             Ti 37 -- Ti 46                  0.17        2.82212
             Ti 12 -- Ti 29                  0.12        2.82268
             Ti 15 -- Ti 16                  0.15        2.82297
             Ti 22 -- Ti 34                  0.13        2.82407
             Ti 9  -- Ti 10                  0.19        2.82437
             Ti 1  -- Ti 6                   0.16        2.82439
             Ti 6  -- Ti 17                  0.19        2.82446
              Al 6 -- Ti 44                  0.26        2.82504
             Ti 18 -- Ti 19                  0.17        2.82514
             Ti 22 -- V 2                    0.26        2.82634
             Ti 11 -- Ti 16                  0.12        2.82665
             Ti 17 -- Ti 24                  0.14        2.82704
              Al 2 -- Ti 32                  0.23        2.82844
             Ti 28 -- Ti 37                  0.15        2.83096
             Ti 23 -- Ti 28                  0.16        2.83217
             Ti 2  -- Ti 3                   0.15        2.83228
              Al 2 -- Ti 45                  0.23        2.83274
             Ti 17 -- Ti 28                  0.16        2.83292
             Ti 11 -- Ti 12                  0.13        2.83372
             Ti 29 -- Ti 30                  0.14        2.83383
             Ti 6  -- Ti 11                  0.15        2.83406
             Ti 29 -- Ti 33                  0.11        2.83421
              Al 4 -- Ti 45                  0.25        2.83426
             Ti 23 -- V 1                    0.21        2.83451
             Ti 11 -- V 1                    0.27        2.83456
             Ti 7  -- Ti 23                  0.13        2.83568
              Al 5 -- Ti 10                  0.26        2.83634
             Ti 11 -- Ti 37                  0.25        2.83788
             Ti 33 -- Ti 41                  0.13        2.83895
             Ti 24 -- Ti 25                  0.13        2.83905
             Ti 21 -- Ti 28                  0.17        2.83915
             Ti 25 -- Ti 32                  0.15        2.84010
             Ti 20 -- Ti 35                  0.16        2.84106
             Ti 4  -- Ti 9                   0.23        2.84113
             Ti 8  -- Ti 38                  0.15        2.84161
             Ti 2  -- Ti 17                  0.15        2.84163
             Ti 45 -- V 2                    0.20        2.84172
              Al 4 -- Ti 36                  0.25        2.84278
             Ti 42 -- Ti 43                  0.15        2.84305
              Al 1 -- Ti 27                  0.23        2.84353
             Ti 19 -- Ti 26                  0.16        2.84385
             Ti 27 -- Ti 32                  0.16        2.84464
              Al 3 -- Ti 1                   0.22        2.84507
             Ti 4  -- Ti 13                  0.14        2.84518
              Al 5 -- Ti 8                   0.20        2.84520
             Ti 25 -- Ti 30                  0.12        2.84581
             Ti 12 -- V 1                    0.17        2.84622
             Ti 10 -- Ti 40                  0.16        2.84624
             Ti 18 -- Ti 34                  0.16        2.84653
             Ti 2  -- Ti 11                  0.17        2.84681
             Ti 7  -- Ti 12                  0.20        2.84686
              Al 1 -- Ti 16                  0.24        2.84705
              Al 3 -- Ti 43                  0.22        2.84708
             Ti 21 -- Ti 22                  0.20        2.84753
             Ti 32 -- Ti 43                  0.16        2.84768
             Ti 18 -- Ti 29                  0.14        2.84785
             Ti 29 -- V 1                    0.22        2.84841
             Ti 8  -- Ti 12                  0.14        2.84909
              Al 2 -- Ti 20                  0.24        2.84918
             Ti 17 -- Ti 18                  0.14        2.84977
             Ti 36 -- Ti 43                  0.15        2.85043
             Ti 34 -- Ti 40                  0.13        2.85103
              Al 4 -- Al 5                   0.23        2.85188
             Ti 13 -- Ti 42                  0.13        2.85215
             Ti 33 -- Ti 45                  0.15        2.85217
             Ti 34 -- Ti 41                  0.17        2.85239
             Ti 39 -- Ti 44                  0.14        2.85239
              Al 6 -- Ti 40                  0.25        2.85302
             Ti 6  -- Ti 15                  0.15        2.85334
              Al 5 -- Ti 44                  0.27        2.85372
              Al 6 -- Ti 28                  0.22        2.85436
             Ti 41 -- Ti 46                  0.17        2.85492
             Ti 15 -- Ti 21                  0.29        2.85566
             Ti 4  -- Ti 36                  0.21        2.85583
             Ti 41 -- Ti 42                  0.15        2.85597
             Ti 17 -- Ti 29                  0.23        2.85654
             Ti 11 -- Ti 46                  0.15        2.85721
              Al 4 -- Ti 20                  0.26        2.85753
             Ti 19 -- Ti 24                  0.14        2.85865
             Ti 26 -- Ti 27                  0.17        2.85885
             Ti 18 -- Ti 30                  0.21        2.85887
             Ti 12 -- Ti 13                  0.13        2.85942
             Ti 8  -- Ti 9                   0.12        2.85982
             Ti 25 -- Ti 26                  0.12        2.86018
             Ti 13 -- Ti 19                  0.25        2.86034
             Ti 11 -- Ti 29                  0.22        2.86057
             Ti 4  -- Ti 21                  0.14        2.86062
             Ti 12 -- Ti 38                  0.22        2.86062
             Ti 23 -- Ti 24                  0.17        2.86142
             Ti 1  -- Ti 41                  0.20        2.86146
             Ti 3  -- Ti 9                   0.14        2.86171
              Al 4 -- Ti 5                   0.25        2.86173
             Ti 4  -- Ti 19                  0.14        2.86325
             Ti 1  -- Ti 23                  0.21        2.86360
             Ti 34 -- Ti 38                  0.13        2.86441
             Ti 37 -- Ti 40                  0.14        2.86442
             Ti 35 -- Ti 38                  0.15        2.86549
             Ti 13 -- Ti 14                  0.17        2.86556
             Ti 18 -- Ti 31                  0.15        2.86557
             Ti 15 -- Ti 44                  0.15        2.86558
             Ti 39 -- Ti 42                  0.13        2.86609
             Ti 11 -- Ti 42                  0.13        2.86653
             Ti 2  -- Ti 42                  0.21        2.86686
             Ti 9  -- Ti 27                  0.16        2.86708
             Ti 3  -- Ti 4                   0.14        2.86727
             Ti 3  -- Ti 7                   0.15        2.86732
             Ti 27 -- Ti 33                  0.16        2.86798
             Ti 9  -- Ti 25                  0.13        2.86808
             Ti 30 -- Ti 43                  0.14        2.86853
             Ti 5  -- Ti 36                  0.13        2.86881
             Ti 14 -- Ti 44                  0.21        2.86939
             Ti 14 -- Ti 20                  0.26        2.86940
              Al 3 -- Ti 30                  0.26        2.87000
             Ti 8  -- Ti 14                  0.14        2.87036
             Ti 44 -- Ti 45                  0.20        2.87168
             Ti 30 -- Ti 41                  0.16        2.87222
             Ti 18 -- Ti 35                  0.16        2.87257
             Ti 3  -- Ti 19                  0.22        2.87354
              Al 6 -- Ti 26                  0.22        2.87366
             Ti 2  -- Ti 13                  0.13        2.87378
             Ti 2  -- Ti 19                  0.15        2.87403
             Ti 17 -- Ti 34                  0.25        2.87478
             Ti 13 -- Ti 31                  0.23        2.87536
             Ti 24 -- Ti 37                  0.15        2.87542
             Ti 38 -- Ti 39                  0.13        2.87570
             Ti 13 -- Ti 44                  0.13        2.87604
              Al 3 -- Ti 35                  0.20        2.87622
             Ti 7  -- Ti 25                  0.15        2.87626
             Ti 10 -- Ti 16                  0.14        2.87662
             Ti 16 -- Ti 22                  0.16        2.87728
             Ti 3  -- Ti 43                  0.24        2.87780
              Al 5 -- Ti 26                  0.25        2.87786
             Ti 6  -- Ti 28                  0.21        2.87797
             Ti 3  -- Ti 13                  0.25        2.87801
              Al 5 -- Ti 36                  0.25        2.87875
             Ti 8  -- Ti 31                  0.23        2.87949
             Ti 7  -- Ti 8                   0.14        2.87958
             Ti 4  -- Ti 5                   0.13        2.87992
             Ti 6  -- V 2                    0.23        2.88000
              Al 4 -- Al 6                   0.22        2.88171
              Al 2 -- Ti 27                  0.25        2.88245
             Ti 4  -- Ti 15                  0.12        2.88290
             Ti 32 -- Ti 45                  0.15        2.88298
              Al 2 -- Ti 15                  0.23        2.88322
             Ti 17 -- Ti 22                  0.15        2.88324
              Al 1 -- Ti 6                   0.23        2.88325
              Al 2 -- Ti 10                  0.26        2.88404
             Ti 9  -- Ti 32                  0.25        2.88433
             Ti 14 -- Ti 32                  0.20        2.88509
             Ti 5  -- Ti 10                  0.20        2.88549
             Ti 23 -- Ti 30                  0.14        2.88634
             Ti 8  -- Ti 39                  0.24        2.88684
             Ti 8  -- Ti 35                  0.24        2.88708
             Ti 11 -- Ti 41                  0.26        2.88733
             Ti 9  -- Ti 26                  0.29        2.88823
              Al 3 -- Ti 18                  0.25        2.88832
             Ti 12 -- Ti 31                  0.13        2.88882
             Ti 37 -- Ti 38                  0.12        2.88914
              Al 3 -- Ti 42                  0.24        2.88926
             Ti 6  -- Ti 21                  0.15        2.89022
              Al 3 -- Ti 2                   0.26        2.89115
             Ti 5  -- Ti 45                  0.20        2.89260
             Ti 5  -- Ti 9                   0.10        2.89289
             Ti 1  -- Ti 2                   0.17        2.89306
             Ti 24 -- Ti 39                  0.12        2.89548
             Ti 38 -- V 1                    0.15        2.89614
             Ti 8  -- Ti 13                  0.27        2.89630
             Ti 35 -- Ti 39                  0.21        2.89682
             Ti 30 -- Ti 42                  0.26        2.89754
              Al 1 -- V 2                    0.24        2.89801
             Ti 36 -- Ti 45                  0.21        2.89866
             Ti 30 -- Ti 31                  0.12        2.89869
             Ti 10 -- Ti 27                  0.18        2.89927
              Al 6 -- Ti 21                  0.28        2.90029
             Ti 21 -- Ti 26                  0.14        2.90093
             Ti 4  -- Ti 14                  0.20        2.90110
             Ti 35 -- Ti 43                  0.23        2.90116
             Ti 26 -- Ti 32                  0.26        2.90316
              Al 3 -- Ti 38                  0.25        2.90390
             Ti 29 -- Ti 34                  0.21        2.90436
              Al 3 -- Ti 7                   0.24        2.90572
             Ti 3  -- Ti 35                  0.22        2.90615
             Ti 4  -- Ti 26                  0.24        2.90636
             Ti 37 -- Ti 42                  0.11        2.90794
             Ti 25 -- Ti 31                  0.23        2.90911
             Ti 19 -- Ti 20                  0.14        2.90934
              Al 5 -- Ti 20                  0.26        2.90943
             Ti 33 -- Ti 46                  0.28        2.90960
             Ti 4  -- Ti 44                  0.24        2.90983
              Al 1 -- Ti 28                  0.21        2.91022
             Ti 20 -- Ti 32                  0.26        2.91040
              Al 2 -- Ti 21                  0.23        2.91079
             Ti 10 -- Ti 15                  0.24        2.91215
              Al 6 -- Ti 27                  0.26        2.91220
             Ti 19 -- Ti 25                  0.24        2.91229
              Al 4 -- Ti 21                  0.26        2.91388
             Ti 43 -- Ti 44                  0.14        2.91427
             Ti 25 -- Ti 39                  0.23        2.91547
             Ti 37 -- V 1                    0.27        2.91581
              Al 1 -- Ti 33                  0.24        2.91657
             Ti 27 -- Ti 45                  0.16        2.91745
              Al 4 -- Ti 10                  0.27        2.91790
             Ti 22 -- Ti 40                  0.21        2.91959
             Ti 12 -- Ti 42                  0.22        2.91986
             Ti 19 -- Ti 31                  0.24        2.92042
             Ti 12 -- Ti 30                  0.23        2.92276
             Ti 28 -- Ti 46                  0.26        2.92315
             Ti 24 -- Ti 42                  0.27        2.92387
             Ti 33 -- V 2                    0.31        2.92498
             Ti 23 -- Ti 29                  0.23        2.92563
             Ti 26 -- Ti 44                  0.25        2.92579
             Ti 20 -- Ti 26                  0.23        2.92661
             Ti 17 -- Ti 37                  0.26        2.92757
             Ti 46 -- V 2                    0.22        2.92796
              Al 6 -- Ti 10                  0.26        2.92845
             Ti 12 -- Ti 18                  0.18        2.92886
             Ti 25 -- Ti 43                  0.24        2.92972
             Ti 2  -- Ti 12                  0.21        2.93104
             Ti 31 -- Ti 43                  0.24        2.93145
             Ti 5  -- Ti 27                  0.21        2.93192
             Ti 3  -- Ti 25                  0.23        2.93290
             Ti 13 -- Ti 43                  0.26        2.93311
             Ti 28 -- Ti 33                  0.25        2.93355
             Ti 18 -- Ti 24                  0.24        2.93439
             Ti 20 -- Ti 36                  0.23        2.93514
             Ti 13 -- Ti 39                  0.26        2.93553
              Al 2 -- Al 4                   0.18        2.93769
             Ti 8  -- Ti 25                  0.24        2.93821
             Ti 6  -- Ti 46                  0.22        2.94076
             Ti 39 -- Ti 43                  0.24        2.94104
             Ti 34 -- Ti 37                  0.25        2.94153
             Ti 16 -- Ti 40                  0.16        2.94248
             Ti 24 -- Ti 38                  0.23        2.94313
             Ti 19 -- Ti 39                  0.25        2.94379
             Ti 21 -- Ti 27                  0.26        2.94552
             Ti 5  -- Ti 15                  0.22        2.94606
             Ti 38 -- Ti 42                  0.29        2.94633
             Ti 24 -- Ti 30                  0.28        2.94658
             Ti 37 -- Ti 41                  0.21        2.94741
             Ti 18 -- Ti 38                  0.22        2.94965
             Ti 2  -- Ti 24                  0.25        2.94969
             Ti 4  -- Ti 20                  0.20        2.95106
             Ti 17 -- Ti 23                  0.24        2.95879
              Al 5 -- Ti 14                  0.24        2.96093
             Ti 2  -- Ti 18                  0.25        2.96116
             Ti 2  -- Ti 7                   0.23        2.96170
             Ti 19 -- Ti 35                  0.27        2.96178
             Ti 7  -- Ti 30                  0.29        2.96430
             Ti 5  -- Ti 21                  0.26        2.96465
             Ti 3  -- Ti 8                   0.25        2.96617
             Ti 31 -- Ti 35                  0.23        2.97254
              Al 5 -- Ti 9                   0.24        2.97386
             Ti 11 -- Ti 17                  0.26        2.97419
             Ti 7  -- Ti 24                  0.22        2.98244
              Al 6 -- Ti 15                  0.23        2.98347
             Ti 32 -- Ti 44                  0.29        2.98754
             Ti 34 -- V 1                    0.26        2.98837
             Ti 23 -- Ti 37                  0.23        2.98927
             Ti 29 -- Ti 41                  0.22        2.99511
             Ti 9  -- Ti 14                  0.23        2.99760
             Ti 22 -- Ti 28                  0.24        2.99980
======================================================================

 
 A BibTeX formatted list of references used in this run has been written to 
 sqs_hcp_sc3x3x3_Ti46Al6V2_frame0_01.bib
 
Initialisation time =     19.82 s
Calculation time    =   2124.34 s
Finalisation time   =      0.31 s
Total time          =   2144.48 s
Peak Memory Use     = 1888624 kB
 
Overall parallel efficiency rating: Mediocre (56%)
 
Data was distributed by:-
G-vector (24-way); efficiency rating: Mediocre (57%)
k-point (14-way); efficiency rating: Excellent (98%)
