 +-------------------------------------------------+
 |                                                 |
 |      CCC   AA    SSS  TTTTT  EEEEE  PPPP        |
 |     C     A  A  S       T    E      P   P       |
 |     C     AAAA   SS     T    EEE    PPPP        |
 |     C     A  A     S    T    E      P           |
 |      CCC  A  A  SSS     T    EEEEE  P           |
 |                                                 |
 +-------------------------------------------------+
 |                                                 |
 | Welcome to Academic Release CASTEP version 24.1 |
 | Ab Initio Total Energy Program                  |
 |                                                 |
 | Authors:                                        |
 | M. Segall, M. Probert, C. Pickard, P. Hasnip,   |
 | S. Clark, K. Refson, J. R. Yates,               |
 | A. Bartok-Partay, M. Payne                      |
 |                                                 |
 | Contributors:                                   |
 | P. Lindan, P. Haynes, J. White, V. Milman,      |
 | N. Govind, M. Gibson, P. Tulip, V. Cocula,      |
 | B. Montanari, D. Quigley, M. Glover,            |
 | L. Bernasconi, A. Perlov, M. Plummer,           |
 | E. McNellis, J. Meyer, J. Gale, D. Jochym       |
 | J. Aarons, B. Walker, R. Gillen, D. Jones       |
 | T. Green, I. J. Bush, C. J. Armstrong,          |
 | E. J. Higgins, E. L. Brown, M. S. McFly,        |
 | J. Wilkins, B-C. Shih, P. J. P. Byrne,          |
 | R. J. Maurer, J. C. Womack, J. Dziedzic,        |
 | L. LeBlanc, T. K. Stenczel, J. Kermode,         |
 | S. Sturniolo, B. Shi, B. Durham, M. Evans,      |
 | M. J. Smith, A. Tamerus, Z. Hawkhead,           |
 | V. Ravindran, T. Hollins, S. A. Joyce,          |
 | R. T. Strong, A. M. Reilly                      |
 |                                                 |
 | Copyright (c) 2000 - 2023                       |
 |                                                 |
 |     Distributed under license from Cambridge    |
 |     Enterprise for academic use only.           |
 |                                                 |
 | Please cite                                     |
 |                                                 |
 |     "First principles methods using CASTEP"     |
 |                                                 |
 |         Zeitschrift fuer Kristallographie       |
 |           220(5-6) pp. 567-570 (2005)           |
 |                                                 |
 | S. J. Clark, M. D. Segall, C. J. Pickard,       |
 | P. J. Hasnip, M. J. Probert, K. Refson,         |
 | M. C. Payne                                     |
 |                                                 |
 |       in all publications arising from          |
 |              your use of CASTEP                 |
 |                                                 |
 +-------------------------------------------------+
 |                                                 |
 |              http://www.castep.org              |
 |                                                 |
 +-------------------------------------------------+



 Compiled for linux_x86_64_gfortran10 on Tue, 02 May 2023 15:31:46 +0100
 from code version db08e394c+  default  Mon May 1 16:40:39 2023 +0100
 Compiler: GNU Fortran 10.2.0; Optimisation: fast
 Comms   : Open MPI v4.0.5
 MATHLIBS: openblas (LAPACK version 3.9.0)
 FFT Lib : fftw3 version fftw-3.3.8-sse2-avx-avx2-avx2_128
 Fundamental constants values: CODATA 2018

 Run started: Wed, 07 Feb 2024 16:56:18 +0000
 Info: number of up-spin electrons is not equal to the
       number of down-spins but spin_polarized=false
     - consider setting spin_polarized=true.

 Atomic calculation performed for Al: 1s2 2s2 2p6 3s2 3p1

 Converged in 54 iterations to an ae energy of -6603.783 eV

   ============================================================                
   | Pseudopotential Report - Date of generation  7-02-2024   |                
   ------------------------------------------------------------                
   | Element: Al Ionic charge:  3.00 Level of theory: PBE     |                
   | Atomic Solver: Koelling-Harmon                           |                
   |                                                          |                
   |               Reference Electronic Structure             |                
   |         Orbital         Occupation         Energy        |                
   |            3s              2.000           -0.285        |                
   |            3p              1.000           -0.100        |                
   |                                                          |                
   |                 Pseudopotential Definition               |                
   |        Beta     l      e      Rc     scheme   norm       |                
   |          1      0   -0.285   2.192     qc      0         |                
   |          2      0    0.250   2.192     qc      0         |                
   |          3      1   -0.100   2.192     qc      0         |                
   |          4      1    0.250   2.192     qc      0         |                
   |          5      2    0.000   2.000     qc      0         |                
   |          6      2    0.250   2.000     qc      0         |                
   |         loc     3    0.000   2.192     pn      0         |                
   |                                                          |                
   | Augmentation charge Rinner = 1.398                       |                
   | Partial core correction Rc = 1.398                       |                
   ------------------------------------------------------------                
   | "3|2.2|2.2|1.4|4|5|5|30:31:32U2U2"                       |                
   ------------------------------------------------------------                
   |      Author: Chris J. Pickard, Cambridge University      |                
   ============================================================                

 Atomic calculation performed for Ti: 1s2 2s2 2p6 3s2 3p6 3d2 4s2

 Converged in 79 iterations to an ae energy of -23226.658 eV

   ============================================================                
   | Pseudopotential Report - Date of generation  7-02-2024   |                
   ------------------------------------------------------------                
   | Element: Ti Ionic charge: 12.00 Level of theory: PBE     |                
   | Atomic Solver: Koelling-Harmon                           |                
   |                                                          |                
   |               Reference Electronic Structure             |                
   |         Orbital         Occupation         Energy        |                
   |            3s              2.000           -2.302        |                
   |            3p              6.000           -1.428        |                
   |            4s              2.000           -0.164        |                
   |            3d              2.000           -0.157        |                
   |                                                          |                
   |                 Pseudopotential Definition               |                
   |        Beta     l      e      Rc     scheme   norm       |                
   |          1      0   -2.302   1.793     qc      0         |                
   |          2      0   -0.164   1.793     qc      0         |                
   |          3      0    0.250   1.793     qc      0         |                
   |          4      1   -1.428   1.793     qc      0         |                
   |          5      1    0.250   1.793     qc      0         |                
   |          6      2   -0.157   1.793     qc      0         |                
   |          7      2    0.250   1.793     qc      0         |                
   |         loc     3    0.000   1.793     pn      0         |                
   |                                                          |                
   | Augmentation charge Rinner = 1.263                       |                
   | Partial core correction Rc = 1.263                       |                
   ------------------------------------------------------------                
   | "3|1.8|9|10|11|30U:40:31:32(qc=5.5)"                     |                
   ------------------------------------------------------------                
   |      Author: Chris J. Pickard, Cambridge University      |                
   ============================================================                

 Atomic calculation performed for V: 1s2 2s2 2p6 3s2 3p6 3d3 4s2

 Converged in 81 iterations to an ae energy of -25823.733 eV

   ============================================================                
   | Pseudopotential Report - Date of generation  7-02-2024   |                
   ------------------------------------------------------------                
   | Element: V Ionic charge: 13.00 Level of theory: PBE      |                
   | Atomic Solver: Koelling-Harmon                           |                
   |                                                          |                
   |               Reference Electronic Structure             |                
   |         Orbital         Occupation         Energy        |                
   |            3s              2.000           -2.581        |                
   |            3p              6.000           -1.618        |                
   |            3d              3.000           -0.190        |                
   |            4s              2.000           -0.173        |                
   |                                                          |                
   |                 Pseudopotential Definition               |                
   |        Beta     l      e      Rc     scheme   norm       |                
   |          1      0   -2.581   1.803     qc      0         |                
   |          2      0   -0.173   1.803     qc      0         |                
   |          3      0    0.250   1.803     qc      0         |                
   |          4      1   -1.618   1.803     qc      0         |                
   |          5      1    0.250   1.803     qc      0         |                
   |          6      2   -0.190   1.803     qc      0         |                
   |          7      2    0.250   1.803     qc      0         |                
   |         loc     3    0.000   1.803     pn      0         |                
   |                                                          |                
   | Augmentation charge Rinner = 0.600                       |                
   | Partial core correction Rc = 0.600                       |                
   ------------------------------------------------------------                
   | "3|1.8|1.8|0.6|12|14|16|30U:40:31:32(qc=7)"              |                
   ------------------------------------------------------------                
   |      Author: Chris J. Pickard, Cambridge University      |                
   ============================================================                

 Pseudo atomic calculation performed for Al 3s2 3p1

 Converged in 15 iterations to a total energy of -107.1308 eV

 Pseudo atomic calculation performed for Ti 3s2 3p6 3d2 4s2

 Converged in 34 iterations to a total energy of -1587.0236 eV

 Pseudo atomic calculation performed for V 3s2 3p6 3d3 4s2

 Converged in 35 iterations to a total energy of -2065.7874 eV
 Calculation parallelised over 240 processes.
 Data is distributed by G-vector(16-way) and k-point(15-way)

 ************************************ Title ************************************
 

 ***************************** General Parameters ******************************
  
 output verbosity                               : normal  (1)
 write checkpoint data to                       : sqs_hex_sc3x3x3_Ti70Al8V3_frame0_00.check
 type of calculation                            : single point energy
 stress calculation                             : on
 density difference calculation                 : off
 electron localisation func (ELF) calculation   : off
 Hirshfeld analysis                             : off
 polarisation (Berry phase) analysis            : off
 molecular orbital projected DOS                : off
 deltaSCF calculation                           : off
 unlimited duration calculation
 timing information                             : on
 memory usage estimate                          : on
 write extra output files                       : on
 write final potential to formatted file        : off
 write final density to formatted file          : off
 write BibTeX reference list                    : on
 write OTFG pseudopotential files               : on
 write electrostatic potential file             : on
 write bands file                               : on
 checkpoint writing                             : off
  
 output         length unit                     : A
 output           mass unit                     : amu
 output           time unit                     : ps
 output         charge unit                     : e
 output           spin unit                     : hbar/2
 output         energy unit                     : eV
 output          force unit                     : eV/A
 output       velocity unit                     : A/ps
 output       pressure unit                     : GPa
 output     inv_length unit                     : 1/A
 output      frequency unit                     : cm-1
 output force constant unit                     : eV/A**2
 output         volume unit                     : A**3
 output   IR intensity unit                     : (D/A)**2/amu
 output         dipole unit                     : D
 output         efield unit                     : eV/A/e
 output        entropy unit                     : J/mol/K
 output    efield chi2 unit                     : pm/V
  
 wavefunctions paging                           : none
 random number generator seed                   :  165618635
 data distribution                              : k-point only
 optimization strategy                          : maximize speed(+++)

 *********************** Exchange-Correlation Parameters ***********************
  
 using functional                               : Perdew Burke Ernzerhof
 relativistic treatment                         : Koelling-Harmon
 DFT+D: Semi-empirical dispersion correction    : off

 ************************* Pseudopotential Parameters **************************
  
 pseudopotential representation                 : reciprocal space
 <beta|phi> representation                      : reciprocal space
 spin-orbit coupling                            : off

 **************************** Basis Set Parameters *****************************
  
 plane wave basis set cut-off                   :   800.0000   eV
 size of standard grid                          :     2.0000
 size of   fine   gmax                          :    28.9810   1/A
 largest prime factor in FFT                    :          5
 finite basis set correction                    : automatic
 number of sample energies                      :          3
           sample  spacing                      :     5.0000   eV

 **************************** Electronic Parameters ****************************
  
 number of  electrons                           :  903.0    
 net charge of system                           :  0.000    
 treating system as non-spin-polarized
 number of bands                                :        487

 ********************* Electronic Minimization Parameters **********************
  
 Method: Treating system as metallic with density mixing treatment of electrons,
         and number of  SD  steps               :          1
         and number of  CG  steps               :          4
  
 total energy / atom convergence tol.           : 0.1000E-05   eV
 eigen-energy convergence tolerance             : 0.1663E-06   eV
 max force / atom convergence tol.              : ignored
 convergence tolerance window                   :          3   cycles
 max. number of SCF cycles                      :         30
 number of fixed-spin iterations                :         10
 smearing scheme                                : Gaussian
 smearing width                                 : 0.5000E-01   eV
 Fermi energy convergence tolerance             : 0.2721E-13   eV
 periodic dipole correction                     : NONE

 ************************** Density Mixing Parameters **************************
  
 density-mixing scheme                          : Pulay
 max. length of mixing history                  :         20
 charge density mixing amplitude                : 0.8000    
 cut-off energy for mixing                      :  800.0       eV
 charge density mixing g-vector                 :  1.500       1/A

 *********************** Population Analysis Parameters ************************
  
 Population analysis with cutoff                :  3.000       A
 Population analysis output                     : summary and pdos components

 ******************************* Developer Code ********************************
  
 PARALLEL: kpoint=15 : ENDPARALLEL
 no_improve_wvfn

 *******************************************************************************
  

                           -------------------------------
                                      Unit Cell
                           -------------------------------
        Real Lattice(A)                      Reciprocal Lattice(1/A)
     6.8351780   -11.8388760     0.0000580        0.459621191  -0.265362409   0.000002225
     6.8351780    11.8388760    -0.0000190        0.459621191   0.265362409   0.000000434
    -0.0000240     0.0000280     8.2953630       -0.000002161   0.000002463   0.757433437

                       Lattice parameters(A)       Cell Angles
                    a =     13.670356          alpha =   89.999995
                    b =     13.670356          beta  =   90.000007
                    c =      8.295363          gamma =  120.000002

                       Current cell volume =          1342.535232       A**3
                                   density =             2.770405   AMU/A**3
                                           =             4.600366     g/cm^3

                           -------------------------------
                                     Cell Contents
                           -------------------------------
                         Total number of ions in cell =   81
                      Total number of species in cell =    3
                        Max number of any one species =   70

            xxxxxxxxxxxxxxxxxxxxxxxxxxxxxxxxxxxxxxxxxxxxxxxxxxxxxxxxxxxx
            x  Element    Atom        Fractional coordinates of atoms  x
            x            Number           u          v          w      x
            x----------------------------------------------------------x
            x  Al           1        -0.000247  -0.001326   0.330733   x 
            x  Al           2         0.561171   0.117172   0.794242   x 
            x  Al           3         0.552346   0.444073   0.652557   x 
            x  Al           4         0.560953   0.442024   0.973541   x 
            x  Al           5         0.336101   0.664673  -0.004848   x 
            x  Al           6         0.557634   0.777502   0.155799   x 
            x  Al           7         0.450688   0.900541   0.839547   x 
            x  Al           8         0.779252   0.889231   0.832163   x 
            x  Ti           1        -0.001779  -0.002587  -0.003597   x 
            x  Ti           2         0.108549   0.219909   0.163498   x 
            x  Ti           3         0.222498   0.110493   0.162162   x 
            x  Ti           4         0.106828   0.220019   0.497345   x 
            x  Ti           5         0.221687   0.110436   0.495743   x 
            x  Ti           6        -0.001662  -0.002396   0.665211   x 
            x  Ti           7         0.108640   0.218419   0.830768   x 
            x  Ti           8         0.224869   0.111682   0.829381   x 
            x  Ti           9         0.003632   0.336991  -0.002433   x 
            x  Ti          10         0.115427   0.556488   0.162964   x 
            x  Ti          11         0.225239   0.444777   0.164822   x 
            x  Ti          12         0.002551   0.334690   0.332524   x 
            x  Ti          13         0.112660   0.557161   0.495839   x 
            x  Ti          14         0.223460   0.446833   0.499970   x 
            x  Ti          15        -0.000455   0.335350   0.666586   x 
            x  Ti          16         0.109243   0.556232   0.829239   x 
            x  Ti          17         0.221769   0.444388   0.831850   x 
            x  Ti          18         0.000365   0.665542  -0.004249   x 
            x  Ti          19         0.112536   0.889715   0.162442   x 
            x  Ti          20         0.217888   0.775277   0.164047   x 
            x  Ti          21        -0.005464   0.664090   0.328735   x 
            x  Ti          22         0.113142   0.888943   0.494455   x 
            x  Ti          23         0.221125   0.776339   0.492681   x 
            x  Ti          24        -0.004545   0.664505   0.663284   x 
            x  Ti          25         0.109696   0.888687   0.827867   x 
            x  Ti          26         0.224622   0.779543   0.828082   x 
            x  Ti          27         0.333992   0.000309  -0.006320   x 
            x  Ti          28         0.451283   0.234852   0.159903   x 
            x  Ti          29         0.556528   0.110575   0.142310   x 
            x  Ti          30         0.336418   0.005066   0.326601   x 
            x  Ti          31         0.452068   0.236456   0.487518   x 
            x  Ti          32         0.334858   0.002202   0.659143   x 
            x  Ti          33         0.451035   0.232520   0.825347   x 
            x  Ti          34         0.325672   0.330257  -0.001417   x 
            x  Ti          35         0.451406   0.548786   0.155394   x 
            x  Ti          36         0.558241   0.447419   0.310247   x 
            x  Ti          37         0.320581   0.326511   0.328374   x 
            x  Ti          38         0.449629   0.546337   0.489433   x 
            x  Ti          39         0.321492   0.327665   0.659526   x 
            x  Ti          40         0.449650   0.548696   0.821232   x 
            x  Ti          41         0.439522   0.885989   0.165315   x 
            x  Ti          42         0.335897   0.666633   0.329957   x 
            x  Ti          43         0.446670   0.896220   0.507807   x 
            x  Ti          44         0.552530   0.775180   0.482160   x 
            x  Ti          45         0.337370   0.669584   0.661591   x 
            x  Ti          46         0.554897   0.777830   0.828963   x 
            x  Ti          47         0.667139  -0.002828  -0.004772   x 
            x  Ti          48         0.780331   0.221598   0.168313   x 
            x  Ti          49         0.888455   0.112281   0.165778   x 
            x  Ti          50         0.662668  -0.004470   0.329432   x 
            x  Ti          51         0.770173   0.217601   0.500950   x 
            x  Ti          52         0.886936   0.114703   0.494753   x 
            x  Ti          53         0.667112  -0.005315   0.663059   x 
            x  Ti          54         0.782897   0.225112   0.839423   x 
            x  Ti          55         0.889225   0.112704   0.830038   x 
            x  Ti          56         0.769794   0.544721   0.135186   x 
            x  Ti          57         0.892755   0.443330   0.164231   x 
            x  Ti          58         0.671932   0.327119   0.321028   x 
            x  Ti          59         0.762578   0.547571   0.485135   x 
            x  Ti          60         0.888702   0.444169   0.500467   x 
            x  Ti          61         0.669707   0.333575   0.663686   x 
            x  Ti          62         0.877221   0.448702   0.837333   x 
            x  Ti          63         0.671184   0.674149  -0.005626   x 
            x  Ti          64         0.782764   0.892879   0.161762   x 
            x  Ti          65         0.888461   0.774609   0.169204   x 
            x  Ti          66         0.675867   0.682590   0.325152   x 
            x  Ti          67         0.781058   0.892616   0.504270   x 
            x  Ti          68         0.889891   0.775228   0.499151   x 
            x  Ti          69         0.670677   0.675987   0.657990   x 
            x  Ti          70         0.885427   0.769594   0.834433   x 
            x  V            1         0.552039   0.117615   0.474329   x 
            x  V            2         0.663753   0.316479  -0.004301   x 
            x  V            3         0.761099   0.553177   0.803565   x 
            xxxxxxxxxxxxxxxxxxxxxxxxxxxxxxxxxxxxxxxxxxxxxxxxxxxxxxxxxxxx


                         No user defined ionic velocities

                           -------------------------------
                                   Details of Species
                           -------------------------------

                               Mass of species in AMU
                                    Al   26.9815400
                                    Ti   47.8670000
                                    V   50.9415000

                          Electric Quadrupole Moment (Barn)
                                    Al    0.1466000 Isotope 27
                                    Ti    0.3020000 Isotope 47
                                    V   -0.0520000 Isotope 51

                          Files used for pseudopotentials:
                                    Al 3|2.2|2.2|1.4|4|5|5|30:31:32U2U2
                                    Ti 3|1.8|9|10|11|30U:40:31:32(qc=5.5)
                                    V 3|1.8|1.8|0.6|12|14|16|30U:40:31:32(qc=7)

                           -------------------------------
                              k-Points For BZ Sampling
                           -------------------------------
                       MP grid size for SCF calculation is  5  5  7
                            with an offset of   0.000  0.000  0.000
                       Number of kpoints used =            88

                           -------------------------------
                               Symmetry and Constraints
                           -------------------------------

                      Maximum deviation from symmetry =  0.00000         ANG

                      Number of symmetry operations   =           1
                      Number of ionic constraints     =           3
                      Point group of crystal =     1: C1, 1, 1
                      Space group of crystal =     1: P1, P 1

             Set iprint > 1 for details on symmetry rotations/translations

                         Centre of mass is constrained
             Set iprint > 1 for details of linear ionic constraints

                         Number of cell constraints= 0
                         Cell constraints are:  1 2 3 4 5 6

                         External pressure/stress (GPa)
                          0.00000   0.00000   0.00000
                                    0.00000   0.00000
                                              0.00000
 
+---------------- MEMORY AND SCRATCH DISK ESTIMATES PER PROCESS --------------+
|                                                     Memory          Disk    |
| Baseline code, static data and system overhead      591.0 MB         0.0 MB |
| BLAS internal memory storage                          0.0 MB         0.0 MB |
| Model and support data                              955.5 MB         0.0 MB |
| Electronic energy minimisation requirements         500.0 MB         0.0 MB |
| Force calculation requirements                       15.9 MB         0.0 MB |
| Stress calculation requirements                      17.2 MB         0.0 MB |
|                                               ----------------------------- |
| Approx. total storage required per process         2046.5 MB         0.0 MB |
|                                                                             |
| Requirements will fluctuate during execution and may exceed these estimates |
+-----------------------------------------------------------------------------+
Calculating finite basis set correction with  3 cut-off energies.
Calculating total energy with cut-off of  790.000 eV.
------------------------------------------------------------------------ <-- SCF
SCF loop      Energy           Fermi           Energy gain       Timer   <-- SCF
                               energy          per atom          (sec)   <-- SCF
------------------------------------------------------------------------ <-- SCF
Initial  -1.06873501E+005  0.00000000E+000                        36.41  <-- SCF
      1  -1.15661439E+005  1.20557046E+001   1.08493059E+002     265.99  <-- SCF
      2  -1.18526393E+005  9.39350516E+000   3.53698026E+001     456.55  <-- SCF
      3  -1.18686335E+005  9.18576426E+000   1.97459322E+000     652.08  <-- SCF
      4  -1.18705986E+005  8.38868034E+000   2.42597033E-001     880.05  <-- SCF
      5  -1.18693840E+005  8.60370578E+000  -1.49945114E-001    1115.62  <-- SCF
      6  -1.18687037E+005  8.75272423E+000  -8.39834861E-002    1339.42  <-- SCF
      7  -1.18682556E+005  8.76659714E+000  -5.53219372E-002    1574.94  <-- SCF
      8  -1.18683786E+005  8.71721956E+000   1.51785821E-002    1800.68  <-- SCF
      9  -1.18682469E+005  8.71661229E+000  -1.62571275E-002    2013.36  <-- SCF
     10  -1.18682292E+005  8.70064834E+000  -2.18884351E-003    2233.75  <-- SCF
     11  -1.18682375E+005  8.69552810E+000   1.02365470E-003    2453.73  <-- SCF
     12  -1.18682281E+005  8.69476139E+000  -1.15622297E-003    2664.71  <-- SCF
     13  -1.18682269E+005  8.69496259E+000  -1.42220657E-004    2880.41  <-- SCF
     14  -1.18682270E+005  8.69549513E+000   8.99629325E-006    3097.70  <-- SCF
     15  -1.18682268E+005  8.69547598E+000  -2.77592716E-005    3277.63  <-- SCF
     16  -1.18682268E+005  8.69550777E+000   3.99578097E-006    3463.19  <-- SCF
     17  -1.18682268E+005  8.69557551E+000  -3.55330207E-006    3624.98  <-- SCF
     18  -1.18682268E+005  8.69555868E+000  -8.31675565E-010    3752.64  <-- SCF
     19  -1.18682268E+005  8.69555614E+000  -6.47338128E-008    3879.42  <-- SCF
------------------------------------------------------------------------ <-- SCF
 
Final energy, E             =  -118682.1597369     eV
Final free energy (E-TS)    =  -118682.2678872     eV
(energies not corrected for finite basis set)
 
NB est. 0K energy (E-0.5TS)      =  -118682.2138121     eV
 
Calculating total energy with cut-off of  795.000 eV.
------------------------------------------------------------------------ <-- SCF
SCF loop      Energy           Fermi           Energy gain       Timer   <-- SCF
                               energy          per atom          (sec)   <-- SCF
------------------------------------------------------------------------ <-- SCF
Initial  -1.18682160E+005  0.00000000E+000                      3915.52  <-- SCF
      1  -1.18682271E+005  8.69568232E+000   1.36807010E-003    4085.27  <-- SCF
      2  -1.18682271E+005  8.69568063E+000   3.79603921E-006    4263.19  <-- SCF
      3  -1.18682313E+005  8.69399417E+000   5.23136324E-004    4478.51  <-- SCF
      4  -1.18682270E+005  8.69618464E+000  -5.34775077E-004    4687.00  <-- SCF
      5  -1.18682269E+005  8.69563053E+000  -8.47165935E-006    4882.78  <-- SCF
      6  -1.18682269E+005  8.69554023E+000   2.57774297E-006    5051.80  <-- SCF
      7  -1.18682269E+005  8.69558656E+000  -4.56539471E-007    5182.30  <-- SCF
      8  -1.18682269E+005  8.69553461E+000  -1.06613658E-007    5307.75  <-- SCF
------------------------------------------------------------------------ <-- SCF
 
Final energy, E             =  -118682.1612018     eV
Final free energy (E-TS)    =  -118682.2693419     eV
(energies not corrected for finite basis set)
 
NB est. 0K energy (E-0.5TS)      =  -118682.2152718     eV
 
Calculating total energy with cut-off of  800.000 eV.
------------------------------------------------------------------------ <-- SCF
SCF loop      Energy           Fermi           Energy gain       Timer   <-- SCF
                               energy          per atom          (sec)   <-- SCF
------------------------------------------------------------------------ <-- SCF
Initial  -1.18682161E+005  0.00000000E+000                      5343.64  <-- SCF
      1  -1.18682278E+005  8.69548142E+000   1.44642616E-003    5545.40  <-- SCF
      2  -1.18682278E+005  8.69547874E+000   3.00557161E-006    5718.59  <-- SCF
      3  -1.18682457E+005  8.69456430E+000   2.21001032E-003    5940.71  <-- SCF
      4  -1.18682269E+005  8.69698313E+000  -2.32976366E-003    6155.87  <-- SCF
      5  -1.18682270E+005  8.69557056E+000   2.17483163E-005    6357.21  <-- SCF
      6  -1.18682271E+005  8.69564163E+000   8.16118282E-006    6553.35  <-- SCF
      7  -1.18682271E+005  8.69548323E+000  -4.40077367E-006    6721.40  <-- SCF
      8  -1.18682271E+005  8.69551487E+000  -1.82128394E-007    6853.47  <-- SCF
      9  -1.18682271E+005  8.69551717E+000  -1.05035857E-007    6982.34  <-- SCF
------------------------------------------------------------------------ <-- SCF
 
Final energy, E             =  -118682.1625864     eV
Final free energy (E-TS)    =  -118682.2707419     eV
(energies not corrected for finite basis set)
 
NB est. 0K energy (E-0.5TS)      =  -118682.2166642     eV
 
 For future reference: finite basis dEtot/dlog(Ecut) =      -0.228150eV
 Total energy corrected for finite basis set = -118682.270749 eV

 ************************** Forces **************************
 *                                                          *
 *               Cartesian components (eV/A)                *
 * -------------------------------------------------------- *
 *                         x            y            z      *
 *                                                          *
 * Al              1      0.02200      0.03019      0.01586 *
 * Al              2     -0.19969     -0.07362      0.13608 *
 * Al              3      0.09561     -0.01402     -0.03660 *
 * Al              4      0.03728      0.04405      0.00413 *
 * Al              5     -0.04483      0.02169     -0.03810 *
 * Al              6     -0.07328      0.06529     -0.02199 *
 * Al              7     -0.15628     -0.15108      0.10725 *
 * Al              8      0.02760      0.03923      0.04879 *
 * Ti              1      0.05192     -0.08208     -0.00492 *
 * Ti              2     -0.11263      0.05458      0.01862 *
 * Ti              3      0.06546     -0.04514     -0.01513 *
 * Ti              4     -0.07719      0.04317     -0.02987 *
 * Ti              5     -0.01708      0.02250     -0.03040 *
 * Ti              6      0.06495     -0.02219     -0.00904 *
 * Ti              7     -0.06036      0.07316      0.00368 *
 * Ti              8      0.05710      0.00109     -0.00916 *
 * Ti              9      0.04407     -0.03761     -0.04168 *
 * Ti             10      0.00065      0.03299      0.00558 *
 * Ti             11      0.07184     -0.06347     -0.04434 *
 * Ti             12     -0.06587      0.00507     -0.00574 *
 * Ti             13      0.00134      0.00661      0.00755 *
 * Ti             14      0.06678     -0.02296     -0.07025 *
 * Ti             15     -0.01584     -0.02047      0.03798 *
 * Ti             16      0.06989      0.03012      0.01486 *
 * Ti             17      0.00653      0.02149     -0.06903 *
 * Ti             18     -0.09264     -0.00136     -0.12894 *
 * Ti             19     -0.08932      0.02836      0.02892 *
 * Ti             20      0.12205     -0.01794     -0.01671 *
 * Ti             21      0.03786     -0.00838     -0.00774 *
 * Ti             22     -0.02235      0.02197     -0.01288 *
 * Ti             23      0.03080     -0.00032     -0.00908 *
 * Ti             24     -0.00573     -0.00232      0.09340 *
 * Ti             25     -0.01595     -0.07768     -0.00477 *
 * Ti             26      0.03219     -0.07406      0.05000 *
 * Ti             27     -0.09725      0.07027      0.06227 *
 * Ti             28     -0.01549     -0.11781      0.01324 *
 * Ti             29      0.00968      0.05152      0.06942 *
 * Ti             30     -0.02020      0.07530     -0.05855 *
 * Ti             31     -0.14055     -0.10334     -0.11363 *
 * Ti             32      0.03281     -0.02056      0.04119 *
 * Ti             33     -0.13199     -0.27176     -0.01465 *
 * Ti             34      0.03281      0.03908     -0.12045 *
 * Ti             35      0.03839      0.16726      0.14347 *
 * Ti             36     -0.13373      0.02092      0.23234 *
 * Ti             37      0.01887      0.00062     -0.06027 *
 * Ti             38      0.07134      0.19862     -0.04878 *
 * Ti             39      0.12208     -0.07127      0.12652 *
 * Ti             40     -0.03440      0.17811     -0.01528 *
 * Ti             41      0.00098     -0.08840      0.07741 *
 * Ti             42      0.01271      0.05317     -0.02572 *
 * Ti             43     -0.05509     -0.09703     -0.04147 *
 * Ti             44      0.08634      0.03104      0.04352 *
 * Ti             45      0.03474      0.04540     -0.04684 *
 * Ti             46      0.01802     -0.01339     -0.08454 *
 * Ti             47      0.00667      0.04358      0.03997 *
 * Ti             48      0.06596     -0.01963     -0.02019 *
 * Ti             49     -0.04088     -0.00930     -0.02118 *
 * Ti             50      0.08302      0.02542     -0.07206 *
 * Ti             51      0.06554     -0.14384     -0.05584 *
 * Ti             52     -0.02270     -0.04738     -0.01390 *
 * Ti             53     -0.04685      0.00862     -0.00404 *
 * Ti             54     -0.04809     -0.01278      0.00435 *
 * Ti             55      0.01979      0.06762      0.03497 *
 * Ti             56      0.20463     -0.01371      0.29042 *
 * Ti             57     -0.06721      0.01236     -0.10333 *
 * Ti             58      0.03383      0.16827      0.05084 *
 * Ti             59      0.16756     -0.13914     -0.10712 *
 * Ti             60     -0.06824      0.01015     -0.03863 *
 * Ti             61     -0.15368      0.12291     -0.01199 *
 * Ti             62     -0.05138     -0.01378     -0.03712 *
 * Ti             63     -0.15548     -0.05723     -0.03413 *
 * Ti             64     -0.01483      0.01665      0.05218 *
 * Ti             65     -0.00893      0.05287     -0.09321 *
 * Ti             66     -0.09446     -0.05671     -0.05033 *
 * Ti             67      0.05598     -0.00573     -0.07565 *
 * Ti             68     -0.04568      0.04255     -0.11815 *
 * Ti             69     -0.16139     -0.08735      0.01348 *
 * Ti             70      0.06632      0.05205     -0.12791 *
 * V               1     -0.06091      0.02110      0.03817 *
 * V               2      0.17460      0.22056      0.07194 *
 * V               3      0.38984     -0.23272      0.24294 *
 *                                                          *
 ************************************************************

 ***************** Stress Tensor *****************
 *                                               *
 *          Cartesian components (GPa)           *
 * --------------------------------------------- *
 *             x             y             z     *
 *                                               *
 *  x     -1.249969      0.047018     -0.210645  *
 *  y      0.047018     -1.167258      0.274645  *
 *  z     -0.210645      0.274645     -4.834550  *
 *                                               *
 *  Pressure:    2.4173                          *
 *                                               *
 *************************************************

 Pseudo atomic calculation performed for Al 3s2 3p1

 Converged in 15 iterations to a total energy of -107.1308 eV

 Pseudo atomic calculation performed for Ti 3s2 3p6 3d2 4s2

 Converged in 34 iterations to a total energy of -1587.0236 eV

 Pseudo atomic calculation performed for V 3s2 3p6 3d3 4s2

 Converged in 35 iterations to a total energy of -2065.7874 eV
Charge spilling parameter for spin component 1 = 0.08%

            Orbital Populations       
     Ion    Atom   Orbital             Charge
  -------------------------------------------
     Al     1      S                    0.904
     Al     1      Px                   0.684
     Al     1      Py                   0.667
     Al     1      Pz                   0.684
     Al     2      S                    0.948
     Al     2      Px                   0.698
     Al     2      Py                   0.723
     Al     2      Pz                   0.680
     Al     3      S                    0.955
     Al     3      Px                   0.740
     Al     3      Py                   0.748
     Al     3      Pz                   0.641
     Al     4      S                    0.957
     Al     4      Px                   0.739
     Al     4      Py                   0.724
     Al     4      Pz                   0.645
     Al     5      S                    0.928
     Al     5      Px                   0.640
     Al     5      Py                   0.665
     Al     5      Pz                   0.704
     Al     6      S                    0.961
     Al     6      Px                   0.695
     Al     6      Py                   0.716
     Al     6      Pz                   0.679
     Al     7      S                    0.964
     Al     7      Px                   0.670
     Al     7      Py                   0.718
     Al     7      Pz                   0.697
     Al     8      S                    0.941
     Al     8      Px                   0.724
     Al     8      Py                   0.711
     Al     8      Pz                   0.670
     Ti     1      S                    2.001
     Ti     1      Px                   2.004
     Ti     1      Py                   2.004
     Ti     1      Pz                   2.006
     Ti     1      S                    0.307
     Ti     1      Dzz                  0.494
     Ti     1      Dzy                  0.619
     Ti     1      Dzx                  0.634
     Ti     1      Dxx-yy               0.452
     Ti     1      Dxy                  0.447
     Ti     1      Px                   0.340
     Ti     1      Py                   0.354
     Ti     1      Pz                   0.305
     Ti     2      S                    2.006
     Ti     2      Px                   2.008
     Ti     2      Py                   2.008
     Ti     2      Pz                   2.007
     Ti     2      S                    0.255
     Ti     2      Dzz                  0.601
     Ti     2      Dzy                  0.514
     Ti     2      Dzx                  0.508
     Ti     2      Dxx-yy               0.594
     Ti     2      Dxy                  0.592
     Ti     2      Px                   0.294
     Ti     2      Py                   0.304
     Ti     2      Pz                   0.332
     Ti     3      S                    2.005
     Ti     3      Px                   2.007
     Ti     3      Py                   2.008
     Ti     3      Pz                   2.007
     Ti     3      S                    0.261
     Ti     3      Dzz                  0.605
     Ti     3      Dzy                  0.506
     Ti     3      Dzx                  0.497
     Ti     3      Dxx-yy               0.599
     Ti     3      Dxy                  0.593
     Ti     3      Px                   0.302
     Ti     3      Py                   0.317
     Ti     3      Pz                   0.323
     Ti     4      S                    2.006
     Ti     4      Px                   2.008
     Ti     4      Py                   2.008
     Ti     4      Pz                   2.007
     Ti     4      S                    0.248
     Ti     4      Dzz                  0.606
     Ti     4      Dzy                  0.510
     Ti     4      Dzx                  0.502
     Ti     4      Dxx-yy               0.593
     Ti     4      Dxy                  0.597
     Ti     4      Px                   0.292
     Ti     4      Py                   0.305
     Ti     4      Pz                   0.324
     Ti     5      S                    2.005
     Ti     5      Px                   2.007
     Ti     5      Py                   2.008
     Ti     5      Pz                   2.007
     Ti     5      S                    0.262
     Ti     5      Dzz                  0.604
     Ti     5      Dzy                  0.502
     Ti     5      Dzx                  0.497
     Ti     5      Dxx-yy               0.600
     Ti     5      Dxy                  0.595
     Ti     5      Px                   0.304
     Ti     5      Py                   0.317
     Ti     5      Pz                   0.323
     Ti     6      S                    2.001
     Ti     6      Px                   2.004
     Ti     6      Py                   2.004
     Ti     6      Pz                   2.006
     Ti     6      S                    0.306
     Ti     6      Dzz                  0.489
     Ti     6      Dzy                  0.624
     Ti     6      Dzx                  0.645
     Ti     6      Dxx-yy               0.447
     Ti     6      Dxy                  0.439
     Ti     6      Px                   0.334
     Ti     6      Py                   0.351
     Ti     6      Pz                   0.306
     Ti     7      S                    2.006
     Ti     7      Px                   2.008
     Ti     7      Py                   2.008
     Ti     7      Pz                   2.007
     Ti     7      S                    0.242
     Ti     7      Dzz                  0.586
     Ti     7      Dzy                  0.506
     Ti     7      Dzx                  0.510
     Ti     7      Dxx-yy               0.596
     Ti     7      Dxy                  0.604
     Ti     7      Px                   0.315
     Ti     7      Py                   0.319
     Ti     7      Pz                   0.339
     Ti     8      S                    2.005
     Ti     8      Px                   2.007
     Ti     8      Py                   2.007
     Ti     8      Pz                   2.007
     Ti     8      S                    0.248
     Ti     8      Dzz                  0.595
     Ti     8      Dzy                  0.508
     Ti     8      Dzx                  0.508
     Ti     8      Dxx-yy               0.589
     Ti     8      Dxy                  0.587
     Ti     8      Px                   0.324
     Ti     8      Py                   0.326
     Ti     8      Pz                   0.333
     Ti     9      S                    2.001
     Ti     9      Px                   2.004
     Ti     9      Py                   2.004
     Ti     9      Pz                   2.005
     Ti     9      S                    0.289
     Ti     9      Dzz                  0.501
     Ti     9      Dzy                  0.588
     Ti     9      Dzx                  0.612
     Ti     9      Dxx-yy               0.471
     Ti     9      Dxy                  0.458
     Ti     9      Px                   0.357
     Ti     9      Py                   0.349
     Ti     9      Pz                   0.333
     Ti    10      S                    2.005
     Ti    10      Px                   2.008
     Ti    10      Py                   2.008
     Ti    10      Pz                   2.007
     Ti    10      S                    0.247
     Ti    10      Dzz                  0.584
     Ti    10      Dzy                  0.521
     Ti    10      Dzx                  0.517
     Ti    10      Dxx-yy               0.606
     Ti    10      Dxy                  0.584
     Ti    10      Px                   0.281
     Ti    10      Py                   0.303
     Ti    10      Pz                   0.332
     Ti    11      S                    2.005
     Ti    11      Px                   2.007
     Ti    11      Py                   2.008
     Ti    11      Pz                   2.007
     Ti    11      S                    0.261
     Ti    11      Dzz                  0.611
     Ti    11      Dzy                  0.502
     Ti    11      Dzx                  0.489
     Ti    11      Dxx-yy               0.589
     Ti    11      Dxy                  0.607
     Ti    11      Px                   0.323
     Ti    11      Py                   0.304
     Ti    11      Pz                   0.320
     Ti    12      S                    2.001
     Ti    12      Px                   2.004
     Ti    12      Py                   2.004
     Ti    12      Pz                   2.005
     Ti    12      S                    0.286
     Ti    12      Dzz                  0.509
     Ti    12      Dzy                  0.613
     Ti    12      Dzx                  0.595
     Ti    12      Dxx-yy               0.446
     Ti    12      Dxy                  0.466
     Ti    12      Px                   0.348
     Ti    12      Py                   0.349
     Ti    12      Pz                   0.339
     Ti    13      S                    2.005
     Ti    13      Px                   2.007
     Ti    13      Py                   2.007
     Ti    13      Pz                   2.007
     Ti    13      S                    0.238
     Ti    13      Dzz                  0.581
     Ti    13      Dzy                  0.509
     Ti    13      Dzx                  0.514
     Ti    13      Dxx-yy               0.599
     Ti    13      Dxy                  0.600
     Ti    13      Px                   0.325
     Ti    13      Py                   0.316
     Ti    13      Pz                   0.338
     Ti    14      S                    2.005
     Ti    14      Px                   2.007
     Ti    14      Py                   2.008
     Ti    14      Pz                   2.007
     Ti    14      S                    0.252
     Ti    14      Dzz                  0.601
     Ti    14      Dzy                  0.511
     Ti    14      Dzx                  0.489
     Ti    14      Dxx-yy               0.588
     Ti    14      Dxy                  0.604
     Ti    14      Px                   0.333
     Ti    14      Py                   0.316
     Ti    14      Pz                   0.330
     Ti    15      S                    2.001
     Ti    15      Px                   2.004
     Ti    15      Py                   2.003
     Ti    15      Pz                   2.005
     Ti    15      S                    0.295
     Ti    15      Dzz                  0.498
     Ti    15      Dzy                  0.608
     Ti    15      Dzx                  0.610
     Ti    15      Dxx-yy               0.464
     Ti    15      Dxy                  0.445
     Ti    15      Px                   0.353
     Ti    15      Py                   0.349
     Ti    15      Pz                   0.335
     Ti    16      S                    2.004
     Ti    16      Px                   2.006
     Ti    16      Py                   2.007
     Ti    16      Pz                   2.006
     Ti    16      S                    0.253
     Ti    16      Dzz                  0.619
     Ti    16      Dzy                  0.502
     Ti    16      Dzx                  0.492
     Ti    16      Dxx-yy               0.585
     Ti    16      Dxy                  0.589
     Ti    16      Px                   0.314
     Ti    16      Py                   0.314
     Ti    16      Pz                   0.318
     Ti    17      S                    2.005
     Ti    17      Px                   2.007
     Ti    17      Py                   2.007
     Ti    17      Pz                   2.006
     Ti    17      S                    0.263
     Ti    17      Dzz                  0.617
     Ti    17      Dzy                  0.513
     Ti    17      Dzx                  0.492
     Ti    17      Dxx-yy               0.586
     Ti    17      Dxy                  0.583
     Ti    17      Px                   0.311
     Ti    17      Py                   0.314
     Ti    17      Pz                   0.323
     Ti    18      S                    2.001
     Ti    18      Px                   2.004
     Ti    18      Py                   2.004
     Ti    18      Pz                   2.005
     Ti    18      S                    0.293
     Ti    18      Dzz                  0.497
     Ti    18      Dzy                  0.611
     Ti    18      Dzx                  0.596
     Ti    18      Dxx-yy               0.461
     Ti    18      Dxy                  0.470
     Ti    18      Px                   0.358
     Ti    18      Py                   0.348
     Ti    18      Pz                   0.338
     Ti    19      S                    2.005
     Ti    19      Px                   2.008
     Ti    19      Py                   2.007
     Ti    19      Pz                   2.007
     Ti    19      S                    0.251
     Ti    19      Dzz                  0.590
     Ti    19      Dzy                  0.507
     Ti    19      Dzx                  0.513
     Ti    19      Dxx-yy               0.598
     Ti    19      Dxy                  0.600
     Ti    19      Px                   0.307
     Ti    19      Py                   0.293
     Ti    19      Pz                   0.335
     Ti    20      S                    2.005
     Ti    20      Px                   2.008
     Ti    20      Py                   2.007
     Ti    20      Pz                   2.007
     Ti    20      S                    0.252
     Ti    20      Dzz                  0.595
     Ti    20      Dzy                  0.506
     Ti    20      Dzx                  0.511
     Ti    20      Dxx-yy               0.592
     Ti    20      Dxy                  0.601
     Ti    20      Px                   0.301
     Ti    20      Py                   0.294
     Ti    20      Pz                   0.333
     Ti    21      S                    2.000
     Ti    21      Px                   2.003
     Ti    21      Py                   2.003
     Ti    21      Pz                   2.005
     Ti    21      S                    0.296
     Ti    21      Dzz                  0.515
     Ti    21      Dzy                  0.607
     Ti    21      Dzx                  0.595
     Ti    21      Dxx-yy               0.447
     Ti    21      Dxy                  0.462
     Ti    21      Px                   0.357
     Ti    21      Py                   0.349
     Ti    21      Pz                   0.329
     Ti    22      S                    2.005
     Ti    22      Px                   2.008
     Ti    22      Py                   2.007
     Ti    22      Pz                   2.007
     Ti    22      S                    0.247
     Ti    22      Dzz                  0.601
     Ti    22      Dzy                  0.505
     Ti    22      Dzx                  0.514
     Ti    22      Dxx-yy               0.588
     Ti    22      Dxy                  0.599
     Ti    22      Px                   0.311
     Ti    22      Py                   0.293
     Ti    22      Pz                   0.331
     Ti    23      S                    2.005
     Ti    23      Px                   2.007
     Ti    23      Py                   2.007
     Ti    23      Pz                   2.006
     Ti    23      S                    0.243
     Ti    23      Dzz                  0.578
     Ti    23      Dzy                  0.515
     Ti    23      Dzx                  0.506
     Ti    23      Dxx-yy               0.597
     Ti    23      Dxy                  0.593
     Ti    23      Px                   0.305
     Ti    23      Py                   0.320
     Ti    23      Pz                   0.343
     Ti    24      S                    2.001
     Ti    24      Px                   2.003
     Ti    24      Py                   2.004
     Ti    24      Pz                   2.005
     Ti    24      S                    0.296
     Ti    24      Dzz                  0.493
     Ti    24      Dzy                  0.623
     Ti    24      Dzx                  0.605
     Ti    24      Dxx-yy               0.442
     Ti    24      Dxy                  0.467
     Ti    24      Px                   0.352
     Ti    24      Py                   0.351
     Ti    24      Pz                   0.339
     Ti    25      S                    2.005
     Ti    25      Px                   2.007
     Ti    25      Py                   2.007
     Ti    25      Pz                   2.006
     Ti    25      S                    0.244
     Ti    25      Dzz                  0.596
     Ti    25      Dzy                  0.502
     Ti    25      Dzx                  0.502
     Ti    25      Dxx-yy               0.600
     Ti    25      Dxy                  0.587
     Ti    25      Px                   0.329
     Ti    25      Py                   0.329
     Ti    25      Pz                   0.334
     Ti    26      S                    2.004
     Ti    26      Px                   2.007
     Ti    26      Py                   2.006
     Ti    26      Pz                   2.005
     Ti    26      S                    0.246
     Ti    26      Dzz                  0.620
     Ti    26      Dzy                  0.490
     Ti    26      Dzx                  0.514
     Ti    26      Dxx-yy               0.567
     Ti    26      Dxy                  0.598
     Ti    26      Px                   0.286
     Ti    26      Py                   0.287
     Ti    26      Pz                   0.340
     Ti    27      S                    2.000
     Ti    27      Px                   2.003
     Ti    27      Py                   2.004
     Ti    27      Pz                   2.005
     Ti    27      S                    0.303
     Ti    27      Dzz                  0.498
     Ti    27      Dzy                  0.613
     Ti    27      Dzx                  0.597
     Ti    27      Dxx-yy               0.446
     Ti    27      Dxy                  0.488
     Ti    27      Px                   0.343
     Ti    27      Py                   0.324
     Ti    27      Pz                   0.326
     Ti    28      S                    2.003
     Ti    28      Px                   2.006
     Ti    28      Py                   2.006
     Ti    28      Pz                   2.006
     Ti    28      S                    0.267
     Ti    28      Dzz                  0.583
     Ti    28      Dzy                  0.517
     Ti    28      Dzx                  0.548
     Ti    28      Dxx-yy               0.510
     Ti    28      Dxy                  0.558
     Ti    28      Px                   0.311
     Ti    28      Py                   0.323
     Ti    28      Pz                   0.344
     Ti    29      S                    2.003
     Ti    29      Px                   2.007
     Ti    29      Py                   2.006
     Ti    29      Pz                   2.005
     Ti    29      S                    0.273
     Ti    29      Dzz                  0.580
     Ti    29      Dzy                  0.471
     Ti    29      Dzx                  0.491
     Ti    29      Dxx-yy               0.615
     Ti    29      Dxy                  0.601
     Ti    29      Px                   0.337
     Ti    29      Py                   0.333
     Ti    29      Pz                   0.266
     Ti    30      S                    2.000
     Ti    30      Px                   2.003
     Ti    30      Py                   2.003
     Ti    30      Pz                   2.004
     Ti    30      S                    0.293
     Ti    30      Dzz                  0.506
     Ti    30      Dzy                  0.608
     Ti    30      Dzx                  0.579
     Ti    30      Dxx-yy               0.461
     Ti    30      Dxy                  0.465
     Ti    30      Px                   0.371
     Ti    30      Py                   0.362
     Ti    30      Pz                   0.327
     Ti    31      S                    2.003
     Ti    31      Px                   2.006
     Ti    31      Py                   2.006
     Ti    31      Pz                   2.006
     Ti    31      S                    0.259
     Ti    31      Dzz                  0.562
     Ti    31      Dzy                  0.497
     Ti    31      Dzx                  0.567
     Ti    31      Dxx-yy               0.542
     Ti    31      Dxy                  0.546
     Ti    31      Px                   0.309
     Ti    31      Py                   0.305
     Ti    31      Pz                   0.345
     Ti    32      S                    2.000
     Ti    32      Px                   2.003
     Ti    32      Py                   2.004
     Ti    32      Pz                   2.005
     Ti    32      S                    0.304
     Ti    32      Dzz                  0.520
     Ti    32      Dzy                  0.606
     Ti    32      Dzx                  0.601
     Ti    32      Dxx-yy               0.441
     Ti    32      Dxy                  0.478
     Ti    32      Px                   0.337
     Ti    32      Py                   0.317
     Ti    32      Pz                   0.328
     Ti    33      S                    2.003
     Ti    33      Px                   2.006
     Ti    33      Py                   2.006
     Ti    33      Pz                   2.006
     Ti    33      S                    0.263
     Ti    33      Dzz                  0.598
     Ti    33      Dzy                  0.498
     Ti    33      Dzx                  0.532
     Ti    33      Dxx-yy               0.539
     Ti    33      Dxy                  0.580
     Ti    33      Px                   0.303
     Ti    33      Py                   0.276
     Ti    33      Pz                   0.352
     Ti    34      S                    2.002
     Ti    34      Px                   2.005
     Ti    34      Py                   2.005
     Ti    34      Pz                   2.005
     Ti    34      S                    0.288
     Ti    34      Dzz                  0.528
     Ti    34      Dzy                  0.598
     Ti    34      Dzx                  0.574
     Ti    34      Dxx-yy               0.488
     Ti    34      Dxy                  0.481
     Ti    34      Px                   0.305
     Ti    34      Py                   0.345
     Ti    34      Pz                   0.333
     Ti    35      S                    2.003
     Ti    35      Px                   2.006
     Ti    35      Py                   2.005
     Ti    35      Pz                   2.005
     Ti    35      S                    0.274
     Ti    35      Dzz                  0.606
     Ti    35      Dzy                  0.552
     Ti    35      Dzx                  0.519
     Ti    35      Dxx-yy               0.546
     Ti    35      Dxy                  0.528
     Ti    35      Px                   0.304
     Ti    35      Py                   0.262
     Ti    35      Pz                   0.342
     Ti    36      S                    2.004
     Ti    36      Px                   2.007
     Ti    36      Py                   2.007
     Ti    36      Pz                   2.007
     Ti    36      S                    0.316
     Ti    36      Dzz                  0.586
     Ti    36      Dzy                  0.486
     Ti    36      Dzx                  0.489
     Ti    36      Dxx-yy               0.603
     Ti    36      Dxy                  0.615
     Ti    36      Px                   0.378
     Ti    36      Py                   0.377
     Ti    36      Pz                   0.239
     Ti    37      S                    2.002
     Ti    37      Px                   2.005
     Ti    37      Py                   2.005
     Ti    37      Pz                   2.006
     Ti    37      S                    0.283
     Ti    37      Dzz                  0.514
     Ti    37      Dzy                  0.594
     Ti    37      Dzx                  0.569
     Ti    37      Dxx-yy               0.520
     Ti    37      Dxy                  0.453
     Ti    37      Px                   0.342
     Ti    37      Py                   0.338
     Ti    37      Pz                   0.321
     Ti    38      S                    2.003
     Ti    38      Px                   2.006
     Ti    38      Py                   2.006
     Ti    38      Pz                   2.006
     Ti    38      S                    0.259
     Ti    38      Dzz                  0.569
     Ti    38      Dzy                  0.564
     Ti    38      Dzx                  0.508
     Ti    38      Dxx-yy               0.587
     Ti    38      Dxy                  0.498
     Ti    38      Px                   0.326
     Ti    38      Py                   0.308
     Ti    38      Pz                   0.335
     Ti    39      S                    2.003
     Ti    39      Px                   2.006
     Ti    39      Py                   2.005
     Ti    39      Pz                   2.006
     Ti    39      S                    0.293
     Ti    39      Dzz                  0.545
     Ti    39      Dzy                  0.608
     Ti    39      Dzx                  0.563
     Ti    39      Dxx-yy               0.495
     Ti    39      Dxy                  0.467
     Ti    39      Px                   0.300
     Ti    39      Py                   0.345
     Ti    39      Pz                   0.330
     Ti    40      S                    2.003
     Ti    40      Px                   2.005
     Ti    40      Py                   2.006
     Ti    40      Pz                   2.006
     Ti    40      S                    0.275
     Ti    40      Dzz                  0.585
     Ti    40      Dzy                  0.527
     Ti    40      Dzx                  0.522
     Ti    40      Dxx-yy               0.567
     Ti    40      Dxy                  0.528
     Ti    40      Px                   0.335
     Ti    40      Py                   0.261
     Ti    40      Pz                   0.330
     Ti    41      S                    2.004
     Ti    41      Px                   2.006
     Ti    41      Py                   2.007
     Ti    41      Pz                   2.006
     Ti    41      S                    0.269
     Ti    41      Dzz                  0.600
     Ti    41      Dzy                  0.510
     Ti    41      Dzx                  0.516
     Ti    41      Dxx-yy               0.598
     Ti    41      Dxy                  0.576
     Ti    41      Px                   0.310
     Ti    41      Py                   0.295
     Ti    41      Pz                   0.300
     Ti    42      S                    2.001
     Ti    42      Px                   2.003
     Ti    42      Py                   2.003
     Ti    42      Pz                   2.005
     Ti    42      S                    0.314
     Ti    42      Dzz                  0.494
     Ti    42      Dzy                  0.609
     Ti    42      Dzx                  0.634
     Ti    42      Dxx-yy               0.464
     Ti    42      Dxy                  0.447
     Ti    42      Px                   0.331
     Ti    42      Py                   0.376
     Ti    42      Pz                   0.312
     Ti    43      S                    2.004
     Ti    43      Px                   2.006
     Ti    43      Py                   2.006
     Ti    43      Pz                   2.006
     Ti    43      S                    0.276
     Ti    43      Dzz                  0.597
     Ti    43      Dzy                  0.502
     Ti    43      Dzx                  0.484
     Ti    43      Dxx-yy               0.564
     Ti    43      Dxy                  0.609
     Ti    43      Px                   0.339
     Ti    43      Py                   0.330
     Ti    43      Pz                   0.276
     Ti    44      S                    2.004
     Ti    44      Px                   2.007
     Ti    44      Py                   2.007
     Ti    44      Pz                   2.007
     Ti    44      S                    0.281
     Ti    44      Dzz                  0.594
     Ti    44      Dzy                  0.500
     Ti    44      Dzx                  0.487
     Ti    44      Dxx-yy               0.581
     Ti    44      Dxy                  0.593
     Ti    44      Px                   0.358
     Ti    44      Py                   0.334
     Ti    44      Pz                   0.289
     Ti    45      S                    2.001
     Ti    45      Px                   2.003
     Ti    45      Py                   2.003
     Ti    45      Pz                   2.005
     Ti    45      S                    0.317
     Ti    45      Dzz                  0.487
     Ti    45      Dzy                  0.622
     Ti    45      Dzx                  0.619
     Ti    45      Dxx-yy               0.464
     Ti    45      Dxy                  0.451
     Ti    45      Px                   0.331
     Ti    45      Py                   0.361
     Ti    45      Pz                   0.314
     Ti    46      S                    2.004
     Ti    46      Px                   2.007
     Ti    46      Py                   2.007
     Ti    46      Pz                   2.006
     Ti    46      S                    0.264
     Ti    46      Dzz                  0.639
     Ti    46      Dzy                  0.511
     Ti    46      Dzx                  0.481
     Ti    46      Dxx-yy               0.598
     Ti    46      Dxy                  0.582
     Ti    46      Px                   0.316
     Ti    46      Py                   0.289
     Ti    46      Pz                   0.296
     Ti    47      S                    2.001
     Ti    47      Px                   2.005
     Ti    47      Py                   2.004
     Ti    47      Pz                   2.005
     Ti    47      S                    0.297
     Ti    47      Dzz                  0.523
     Ti    47      Dzy                  0.583
     Ti    47      Dzx                  0.601
     Ti    47      Dxx-yy               0.474
     Ti    47      Dxy                  0.486
     Ti    47      Px                   0.324
     Ti    47      Py                   0.286
     Ti    47      Pz                   0.309
     Ti    48      S                    2.006
     Ti    48      Px                   2.008
     Ti    48      Py                   2.009
     Ti    48      Pz                   2.008
     Ti    48      S                    0.238
     Ti    48      Dzz                  0.579
     Ti    48      Dzy                  0.536
     Ti    48      Dzx                  0.506
     Ti    48      Dxx-yy               0.596
     Ti    48      Dxy                  0.582
     Ti    48      Px                   0.317
     Ti    48      Py                   0.306
     Ti    48      Pz                   0.349
     Ti    49      S                    2.005
     Ti    49      Px                   2.008
     Ti    49      Py                   2.007
     Ti    49      Pz                   2.007
     Ti    49      S                    0.235
     Ti    49      Dzz                  0.587
     Ti    49      Dzy                  0.507
     Ti    49      Dzx                  0.514
     Ti    49      Dxx-yy               0.592
     Ti    49      Dxy                  0.611
     Ti    49      Px                   0.310
     Ti    49      Py                   0.290
     Ti    49      Pz                   0.331
     Ti    50      S                    2.000
     Ti    50      Px                   2.003
     Ti    50      Py                   2.003
     Ti    50      Pz                   2.004
     Ti    50      S                    0.294
     Ti    50      Dzz                  0.510
     Ti    50      Dzy                  0.586
     Ti    50      Dzx                  0.609
     Ti    50      Dxx-yy               0.467
     Ti    50      Dxy                  0.451
     Ti    50      Px                   0.330
     Ti    50      Py                   0.366
     Ti    50      Pz                   0.328
     Ti    51      S                    2.005
     Ti    51      Px                   2.007
     Ti    51      Py                   2.008
     Ti    51      Pz                   2.007
     Ti    51      S                    0.254
     Ti    51      Dzz                  0.592
     Ti    51      Dzy                  0.523
     Ti    51      Dzx                  0.468
     Ti    51      Dxx-yy               0.575
     Ti    51      Dxy                  0.619
     Ti    51      Px                   0.317
     Ti    51      Py                   0.299
     Ti    51      Pz                   0.331
     Ti    52      S                    2.005
     Ti    52      Px                   2.008
     Ti    52      Py                   2.007
     Ti    52      Pz                   2.007
     Ti    52      S                    0.244
     Ti    52      Dzz                  0.590
     Ti    52      Dzy                  0.506
     Ti    52      Dzx                  0.513
     Ti    52      Dxx-yy               0.593
     Ti    52      Dxy                  0.601
     Ti    52      Px                   0.311
     Ti    52      Py                   0.292
     Ti    52      Pz                   0.339
     Ti    53      S                    2.001
     Ti    53      Px                   2.004
     Ti    53      Py                   2.004
     Ti    53      Pz                   2.005
     Ti    53      S                    0.300
     Ti    53      Dzz                  0.519
     Ti    53      Dzy                  0.594
     Ti    53      Dzx                  0.613
     Ti    53      Dxx-yy               0.464
     Ti    53      Dxy                  0.474
     Ti    53      Px                   0.348
     Ti    53      Py                   0.285
     Ti    53      Pz                   0.326
     Ti    54      S                    2.005
     Ti    54      Px                   2.008
     Ti    54      Py                   2.008
     Ti    54      Pz                   2.006
     Ti    54      S                    0.242
     Ti    54      Dzz                  0.590
     Ti    54      Dzy                  0.516
     Ti    54      Dzx                  0.485
     Ti    54      Dxx-yy               0.603
     Ti    54      Dxy                  0.599
     Ti    54      Px                   0.302
     Ti    54      Py                   0.320
     Ti    54      Pz                   0.343
     Ti    55      S                    2.005
     Ti    55      Px                   2.008
     Ti    55      Py                   2.007
     Ti    55      Pz                   2.006
     Ti    55      S                    0.223
     Ti    55      Dzz                  0.600
     Ti    55      Dzy                  0.504
     Ti    55      Dzx                  0.496
     Ti    55      Dxx-yy               0.592
     Ti    55      Dxy                  0.611
     Ti    55      Px                   0.299
     Ti    55      Py                   0.310
     Ti    55      Pz                   0.353
     Ti    56      S                    2.002
     Ti    56      Px                   2.005
     Ti    56      Py                   2.004
     Ti    56      Pz                   2.004
     Ti    56      S                    0.265
     Ti    56      Dzz                  0.566
     Ti    56      Dzy                  0.524
     Ti    56      Dzx                  0.519
     Ti    56      Dxx-yy               0.527
     Ti    56      Dxy                  0.568
     Ti    56      Px                   0.308
     Ti    56      Py                   0.308
     Ti    56      Pz                   0.343
     Ti    57      S                    2.006
     Ti    57      Px                   2.007
     Ti    57      Py                   2.008
     Ti    57      Pz                   2.007
     Ti    57      S                    0.261
     Ti    57      Dzz                  0.579
     Ti    57      Dzy                  0.522
     Ti    57      Dzx                  0.507
     Ti    57      Dxx-yy               0.588
     Ti    57      Dxy                  0.601
     Ti    57      Px                   0.322
     Ti    57      Py                   0.313
     Ti    57      Pz                   0.339
     Ti    58      S                    2.002
     Ti    58      Px                   2.005
     Ti    58      Py                   2.005
     Ti    58      Pz                   2.006
     Ti    58      S                    0.279
     Ti    58      Dzz                  0.530
     Ti    58      Dzy                  0.530
     Ti    58      Dzx                  0.590
     Ti    58      Dxx-yy               0.444
     Ti    58      Dxy                  0.544
     Ti    58      Px                   0.365
     Ti    58      Py                   0.320
     Ti    58      Pz                   0.334
     Ti    59      S                    2.003
     Ti    59      Px                   2.006
     Ti    59      Py                   2.006
     Ti    59      Pz                   2.006
     Ti    59      S                    0.257
     Ti    59      Dzz                  0.584
     Ti    59      Dzy                  0.508
     Ti    59      Dzx                  0.540
     Ti    59      Dxx-yy               0.533
     Ti    59      Dxy                  0.563
     Ti    59      Px                   0.302
     Ti    59      Py                   0.315
     Ti    59      Pz                   0.340
     Ti    60      S                    2.005
     Ti    60      Px                   2.007
     Ti    60      Py                   2.007
     Ti    60      Pz                   2.006
     Ti    60      S                    0.257
     Ti    60      Dzz                  0.602
     Ti    60      Dzy                  0.490
     Ti    60      Dzx                  0.504
     Ti    60      Dxx-yy               0.590
     Ti    60      Dxy                  0.598
     Ti    60      Px                   0.318
     Ti    60      Py                   0.323
     Ti    60      Pz                   0.329
     Ti    61      S                    2.003
     Ti    61      Px                   2.006
     Ti    61      Py                   2.006
     Ti    61      Pz                   2.005
     Ti    61      S                    0.280
     Ti    61      Dzz                  0.557
     Ti    61      Dzy                  0.514
     Ti    61      Dzx                  0.596
     Ti    61      Dxx-yy               0.470
     Ti    61      Dxy                  0.541
     Ti    61      Px                   0.336
     Ti    61      Py                   0.277
     Ti    61      Pz                   0.341
     Ti    62      S                    2.004
     Ti    62      Px                   2.008
     Ti    62      Py                   2.006
     Ti    62      Pz                   2.006
     Ti    62      S                    0.261
     Ti    62      Dzz                  0.614
     Ti    62      Dzy                  0.496
     Ti    62      Dzx                  0.500
     Ti    62      Dxx-yy               0.613
     Ti    62      Dxy                  0.536
     Ti    62      Px                   0.316
     Ti    62      Py                   0.338
     Ti    62      Pz                   0.319
     Ti    63      S                    2.002
     Ti    63      Px                   2.005
     Ti    63      Py                   2.005
     Ti    63      Pz                   2.005
     Ti    63      S                    0.290
     Ti    63      Dzz                  0.518
     Ti    63      Dzy                  0.596
     Ti    63      Dzx                  0.564
     Ti    63      Dxx-yy               0.505
     Ti    63      Dxy                  0.499
     Ti    63      Px                   0.293
     Ti    63      Py                   0.326
     Ti    63      Pz                   0.333
     Ti    64      S                    2.005
[...]
             Ti 10 -- Ti 13                  0.06        2.76166
             Ti 61 -- V 2                    0.35        2.76182
             Ti 48 -- Ti 51                  0.05        2.76200
             Ti 66 -- Ti 69                  0.33        2.76224
             Ti 27 -- Ti 30                  0.41        2.76227
             Ti 11 -- Ti 17                  0.04        2.76249
             Ti 18 -- Ti 21                  0.38        2.76316
             Ti 13 -- Ti 16                  0.06        2.76599
             Ti 22 -- Ti 25                  0.06        2.76615
             Ti 4  -- Ti 7                   0.08        2.76616
             Ti 3  -- Ti 5                   0.04        2.76720
              Al 5 -- Ti 45                  0.47        2.76767
             Ti 5  -- Ti 8                   0.05        2.76791
             Ti 50 -- Ti 53                  0.42        2.76838
              Al 4 -- Ti 33                  0.26        2.76913
             Ti 2  -- Ti 4                   0.03        2.76949
             Ti 10 -- Ti 16                  0.04        2.76961
             Ti 35 -- Ti 38                  0.24        2.77114
              Al 3 -- V 3                    0.25        2.77149
             Ti 12 -- Ti 15                  0.41        2.77155
             Ti 36 -- Ti 58                  0.18        2.77200
             Ti 35 -- Ti 40                  0.17        2.77209
             Ti 47 -- Ti 50                  0.39        2.77286
              Al 1 -- Ti 1                   0.38        2.77346
              Al 1 -- Ti 6                   0.38        2.77467
             Ti 27 -- Ti 32                  0.36        2.77520
             Ti 21 -- Ti 24                  0.40        2.77523
             Ti 28 -- Ti 33                  0.19        2.77543
             Ti 19 -- Ti 25                  0.05        2.77563
              Al 5 -- Ti 42                  0.40        2.77747
             Ti 65 -- Ti 70                  0.12        2.77769
              Al 3 -- Ti 38                  0.25        2.77852
             Ti 9  -- Ti 12                  0.38        2.77872
             Ti 35 -- Ti 36                  0.14        2.77977
             Ti 11 -- Ti 14                  0.08        2.78055
              Al 2 -- Ti 61                  0.24        2.78148
             Ti 52 -- Ti 55                  0.03        2.78177
             Ti 68 -- Ti 70                  0.08        2.78218
             Ti 23 -- Ti 26                  0.12        2.78265
             Ti 49 -- Ti 55                  0.04        2.78510
             Ti 36 -- Ti 66                  0.19        2.78690
             Ti 20 -- Ti 26                  0.07        2.78812
             Ti 57 -- Ti 60                  0.10        2.78989
             Ti 63 -- Ti 69                  0.30        2.79058
              Al 4 -- Ti 34                  0.31        2.79435
              Al 4 -- Ti 36                  0.23        2.79481
             Ti 58 -- V 1                    0.15        2.79497
             Ti 60 -- Ti 62                  0.08        2.80125
             Ti 31 -- Ti 33                  0.19        2.80283
             Ti 69 -- V 3                    0.14        2.80714
             Ti 28 -- Ti 36                  0.12        2.80865
             Ti 51 -- Ti 54                  0.12        2.81184
              Al 4 -- Ti 56                  0.18        2.81275
             Ti 34 -- Ti 39                  0.37        2.81304
              Al 3 -- Ti 31                  0.23        2.81393
             Ti 54 -- V 2                    0.19        2.81562
             Ti 36 -- Ti 37                  0.19        2.81779
             Ti 36 -- Ti 59                  0.19        2.82092
              Al 3 -- Ti 40                  0.25        2.82528
             Ti 48 -- Ti 58                  0.09        2.83181
             Ti 30 -- V 1                    0.19        2.83236
             Ti 64 -- Ti 66                  0.15        2.83472
             Ti 65 -- Ti 66                  0.14        2.83659
              Al 3 -- Ti 36                  0.19        2.84045
             Ti 64 -- Ti 67                  0.07        2.84131
             Ti 41 -- Ti 43                  0.05        2.84381
             Ti 58 -- Ti 61                  0.32        2.84448
              Al 3 -- Ti 59                  0.18        2.85026
             Ti 61 -- Ti 62                  0.01        2.85213
             Ti 61 -- V 3                    0.14        2.85813
             Ti 42 -- Ti 44                  0.20        2.85863
             Ti 2  -- Ti 37                  0.15        2.85865
             Ti 67 -- Ti 69                  0.16        2.86430
              Al 7 -- Ti 27                  0.23        2.86628
             Ti 63 -- Ti 70                  0.06        2.86690
             Ti 32 -- Ti 43                  0.11        2.86809
             Ti 62 -- V 2                    0.06        2.86951
             Ti 36 -- Ti 38                  0.16        2.87233
              Al 4 -- Ti 40                  0.23        2.87345
              Al 7 -- Ti 47                  0.22        2.87394
             Ti 11 -- Ti 37                  0.13        2.87410
             Ti 4  -- Ti 39                  0.11        2.87552
             Ti 44 -- Ti 66                  0.15        2.87669
             Ti 44 -- Ti 46                  0.10        2.87706
             Ti 53 -- Ti 67                  0.15        2.87781
             Ti 51 -- Ti 58                  0.10        2.87808
              Al 8 -- Ti 63                  0.23        2.88001
             Ti 28 -- V 2                    0.15        2.88025
             Ti 21 -- Ti 65                  0.17        2.88574
              Al 3 -- Ti 33                  0.21        2.88635
             Ti 48 -- V 2                    0.13        2.88782
              Al 2 -- Ti 29                  0.25        2.88846
             Ti 18 -- Ti 62                  0.13        2.89097
              Al 2 -- V 2                    0.20        2.89170
              Al 6 -- Ti 66                  0.21        2.89249
             Ti 4  -- Ti 37                  0.13        2.89286
             Ti 7  -- Ti 39                  0.13        2.89299
             Ti 14 -- Ti 39                  0.11        2.89566
             Ti 11 -- Ti 34                  0.13        2.89603
             Ti 1  -- Ti 64                  0.14        2.89654
             Ti 66 -- Ti 67                  0.12        2.89660
              Al 6 -- Ti 63                  0.21        2.89690
             Ti 36 -- Ti 56                  0.15        2.89742
             Ti 51 -- Ti 61                  0.10        2.89820
             Ti 31 -- Ti 36                  0.13        2.89834
             Ti 6  -- Ti 67                  0.11        2.89860
             Ti 44 -- Ti 50                  0.14        2.90007
             Ti 24 -- Ti 68                  0.11        2.90029
              Al 4 -- Ti 28                  0.17        2.90043
             Ti 33 -- V 2                    0.13        2.90392
              Al 2 -- Ti 32                  0.24        2.90434
             Ti 34 -- Ti 35                  0.10        2.90449
             Ti 56 -- Ti 59                  0.23        2.90555
             Ti 3  -- Ti 37                  0.13        2.90858
             Ti 27 -- Ti 29                  0.14        2.90883
              Al 8 -- Ti 69                  0.22        2.90890
             Ti 5  -- Ti 39                  0.10        2.91106
             Ti 2  -- Ti 34                  0.10        2.91196
             Ti 5  -- Ti 37                  0.11        2.91325
             Ti 46 -- Ti 53                  0.12        2.91339
             Ti 68 -- Ti 69                  0.07        2.91402
             Ti 43 -- Ti 53                  0.10        2.91469
             Ti 24 -- Ti 70                  0.11        2.91594
              Al 2 -- Ti 53                  0.23        2.91726
             Ti 33 -- Ti 61                  0.09        2.91774
             Ti 18 -- Ti 70                  0.09        2.91853
             Ti 29 -- Ti 47                  0.14        2.91933
             Ti 9  -- Ti 57                  0.10        2.91984
             Ti 21 -- Ti 68                  0.15        2.92002
             Ti 57 -- Ti 58                  0.12        2.92106
              Al 6 -- Ti 47                  0.22        2.92192
             Ti 7  -- Ti 34                  0.11        2.92265
             Ti 66 -- Ti 68                  0.17        2.92269
             Ti 8  -- Ti 39                  0.11        2.92364
             Ti 9  -- Ti 54                  0.14        2.92413
             Ti 60 -- Ti 61                  0.13        2.92494
             Ti 9  -- Ti 17                  0.13        2.92567
             Ti 45 -- Ti 46                  0.15        2.92571
              Al 1 -- Ti 64                  0.17        2.92666
              Al 8 -- Ti 1                   0.19        2.92862
             Ti 16 -- Ti 18                  0.13        2.92922
             Ti 17 -- Ti 34                  0.12        2.92931
             Ti 18 -- Ti 20                  0.13        2.92934
             Ti 4  -- Ti 12                  0.13        2.93145
             Ti 35 -- Ti 63                  0.12        2.93239
             Ti 12 -- Ti 52                  0.10        2.93255
              Al 8 -- Ti 53                  0.17        2.93360
             Ti 3  -- Ti 30                  0.15        2.93387
              Al 5 -- Ti 46                  0.20        2.93476
             Ti 41 -- Ti 42                  0.14        2.93534
              Al 8 -- Ti 47                  0.18        2.93557
             Ti 3  -- Ti 34                  0.10        2.93579
             Ti 6  -- Ti 25                  0.10        2.93624
             Ti 17 -- Ti 39                  0.09        2.93653
             Ti 37 -- Ti 38                  0.08        2.93707
             Ti 24 -- Ti 60                  0.11        2.93782
             Ti 24 -- Ti 62                  0.12        2.93800
             Ti 63 -- Ti 64                  0.11        2.93846
             Ti 15 -- Ti 54                  0.12        2.93851
             Ti 9  -- Ti 10                  0.11        2.93870
             Ti 12 -- Ti 57                  0.14        2.93881
              Al 5 -- Ti 17                  0.16        2.93933
             Ti 69 -- Ti 70                  0.04        2.93964
              Al 8 -- Ti 6                   0.19        2.94036
             Ti 46 -- Ti 47                  0.11        2.94052
             Ti 59 -- Ti 61                  0.11        2.94101
             Ti 56 -- V 2                    0.15        2.94153
              Al 5 -- Al 6                   0.20        2.94198
             Ti 46 -- Ti 69                  0.11        2.94253
             Ti 15 -- Ti 16                  0.12        2.94259
             Ti 15 -- Ti 60                  0.12        2.94313
             Ti 28 -- Ti 58                  0.05        2.94469
             Ti 46 -- Ti 63                  0.13        2.94481
             Ti 8  -- Ti 27                  0.09        2.94484
             Ti 14 -- Ti 37                  0.12        2.94589
             Ti 8  -- Ti 34                  0.10        2.94612
             Ti 28 -- Ti 34                  0.11        2.94617
             Ti 9  -- Ti 16                  0.11        2.94784
             Ti 47 -- Ti 64                  0.09        2.94840
             Ti 56 -- Ti 63                  0.11        2.94911
             Ti 31 -- Ti 37                  0.11        2.94994
             Ti 44 -- Ti 45                  0.12        2.95037
             Ti 39 -- Ti 40                  0.11        2.95042
             Ti 21 -- Ti 57                  0.14        2.95070
             Ti 5  -- Ti 32                  0.14        2.95111
             Ti 26 -- Ti 27                  0.14        2.95267
             Ti 6  -- Ti 7                   0.09        2.95299
             Ti 30 -- Ti 41                  0.10        2.95311
             Ti 10 -- Ti 42                  0.09        2.95494
             Ti 63 -- Ti 65                  0.05        2.95510
             Ti 40 -- Ti 69                  0.11        2.95525
             Ti 1  -- Ti 7                   0.09        2.95529
             Ti 58 -- Ti 59                  0.14        2.95575
              Al 6 -- Ti 50                  0.15        2.95638
             Ti 52 -- Ti 53                  0.11        2.95655
             Ti 43 -- Ti 50                  0.09        2.95681
             Ti 8  -- Ti 32                  0.10        2.95724
              Al 7 -- Ti 53                  0.14        2.95725
             Ti 1  -- Ti 25                  0.12        2.95822
             Ti 31 -- Ti 58                  0.06        2.95840
             Ti 14 -- Ti 45                  0.13        2.95856
             Ti 22 -- Ti 32                  0.11        2.95929
              Al 5 -- Ti 11                  0.17        2.95946
             Ti 38 -- Ti 39                  0.11        2.95956
             Ti 59 -- Ti 66                  0.12        2.95991
             Ti 14 -- Ti 42                  0.15        2.95999
             Ti 5  -- Ti 30                  0.15        2.96018
              Al 5 -- Ti 10                  0.13        2.96041
             Ti 44 -- Ti 69                  0.08        2.96055
             Ti 12 -- Ti 14                  0.09        2.96138
             Ti 12 -- Ti 13                  0.10        2.96185
             Ti 11 -- Ti 42                  0.13        2.96229
              Al 1 -- Ti 5                   0.16        2.96265
             Ti 12 -- Ti 48                  0.10        2.96270
              Al 1 -- Ti 67                  0.15        2.96273
              Al 1 -- Ti 4                   0.15        2.96303
             Ti 29 -- Ti 58                  0.04        2.96305
             Ti 63 -- V 3                    0.16        2.96374
              Al 1 -- Ti 2                   0.13        2.96399
             Ti 51 -- Ti 53                  0.11        2.96416
             Ti 15 -- Ti 55                  0.13        2.96420
             Ti 47 -- Ti 55                  0.07        2.96555
             Ti 18 -- Ti 56                  0.13        2.96561
             Ti 31 -- Ti 61                  0.06        2.96649
             Ti 2  -- Ti 12                  0.12        2.96672
             Ti 15 -- Ti 17                  0.09        2.96678
             Ti 27 -- Ti 41                  0.16        2.96735
             Ti 1  -- Ti 19                  0.12        2.96775
             Ti 16 -- Ti 24                  0.13        2.96783
             Ti 2  -- Ti 9                   0.09        2.96801
             Ti 9  -- Ti 11                  0.13        2.96814
             Ti 21 -- Ti 60                  0.14        2.96841
             Ti 58 -- Ti 60                  0.14        2.96912
              Al 1 -- Ti 22                  0.15        2.97029
             Ti 43 -- Ti 45                  0.19        2.97145
             Ti 6  -- Ti 68                  0.10        2.97153
              Al 1 -- Ti 65                  0.15        2.97191
             Ti 41 -- Ti 50                  0.12        2.97209
             Ti 19 -- Ti 27                  0.09        2.97214
              Al 4 -- Ti 35                  0.16        2.97221
             Ti 3  -- Ti 27                  0.13        2.97338
              Al 1 -- Ti 19                  0.14        2.97341
             Ti 53 -- Ti 55                  0.04        2.97361
             Ti 12 -- Ti 49                  0.12        2.97455
             Ti 15 -- Ti 52                  0.08        2.97598
             Ti 20 -- Ti 21                  0.08        2.97630
             Ti 26 -- Ti 45                  0.09        2.97649
             Ti 1  -- Ti 2                   0.11        2.97657
              Al 5 -- Ti 41                  0.15        2.97782
             Ti 47 -- Ti 49                  0.08        2.97832
             Ti 38 -- Ti 69                  0.11        2.97858
             Ti 4  -- Ti 6                   0.11        2.97891
             Ti 10 -- Ti 12                  0.10        2.97896
             Ti 18 -- Ti 57                  0.11        2.97932
              Al 7 -- Ti 32                  0.16        2.97973
             Ti 13 -- Ti 42                  0.12        2.97979
             Ti 19 -- Ti 30                  0.12        2.98023
             Ti 23 -- Ti 42                  0.11        2.98093
             Ti 11 -- Ti 12                  0.09        2.98095
             Ti 34 -- Ti 40                  0.11        2.98209
             Ti 50 -- Ti 64                  0.11        2.98378
             Ti 13 -- Ti 15                  0.11        2.98378
             Ti 24 -- Ti 25                  0.13        2.98478
              Al 1 -- Ti 3                   0.15        2.98488
             Ti 26 -- Ti 32                  0.13        2.98544
             Ti 18 -- Ti 65                  0.11        2.98570
             Ti 6  -- Ti 55                  0.11        2.98617
             Ti 18 -- Ti 25                  0.12        2.98655
             Ti 4  -- Ti 15                  0.10        2.98661
             Ti 59 -- Ti 69                  0.11        2.98691
             Ti 7  -- Ti 9                   0.10        2.98821
             Ti 22 -- Ti 30                  0.11        2.98828
             Ti 12 -- Ti 60                  0.10        2.98868
             Ti 23 -- Ti 45                  0.10        2.98956
             Ti 14 -- Ti 15                  0.10        2.98959
             Ti 50 -- Ti 51                  0.09        2.98977
             Ti 50 -- Ti 52                  0.13        2.98989
             Ti 1  -- Ti 3                   0.12        2.99013
             Ti 25 -- Ti 27                  0.08        2.99052
              Al 1 -- Ti 68                  0.12        2.99172
             Ti 47 -- Ti 54                  0.13        2.99220
             Ti 48 -- Ti 50                  0.07        2.99223
             Ti 28 -- Ti 37                  0.12        2.99239
             Ti 18 -- Ti 19                  0.08        2.99258
             Ti 1  -- Ti 55                  0.11        2.99284
              Al 1 -- Ti 49                  0.15        2.99370
             Ti 10 -- Ti 18                  0.11        2.99426
             Ti 13 -- Ti 45                  0.11        2.99463
             Ti 5  -- Ti 6                   0.12        2.99472
             Ti 32 -- V 1                    0.16        2.99500
              Al 6 -- Ti 42                  0.18        2.99640
             Ti 50 -- Ti 67                  0.08        2.99650
             Ti 40 -- Ti 63                  0.07        2.99697
             Ti 9  -- Ti 55                  0.10        2.99715
             Ti 21 -- Ti 22                  0.10        2.99720
             Ti 18 -- Ti 26                  0.12        2.99732
             Ti 30 -- Ti 43                  0.07        2.99796
             Ti 49 -- Ti 50                  0.09        2.99851
             Ti 9  -- Ti 48                  0.11        2.99960
======================================================================

 
 A BibTeX formatted list of references used in this run has been written to 
 sqs_hex_sc3x3x3_Ti70Al8V3_frame0_00.bib
 
Initialisation time =     24.29 s
Calculation time    =   7521.53 s
Finalisation time   =      0.59 s
Total time          =   7546.42 s
Peak Memory Use     = 2781876 kB
 
Overall parallel efficiency rating: Mediocre (57%)
 
Data was distributed by:-
G-vector (16-way); efficiency rating: Mediocre (59%)
k-point (15-way); efficiency rating: Excellent (95%)
