 +-------------------------------------------------+
 |                                                 |
 |      CCC   AA    SSS  TTTTT  EEEEE  PPPP        |
 |     C     A  A  S       T    E      P   P       |
 |     C     AAAA   SS     T    EEE    PPPP        |
 |     C     A  A     S    T    E      P           |
 |      CCC  A  A  SSS     T    EEEEE  P           |
 |                                                 |
 +-------------------------------------------------+
 |                                                 |
 | Welcome to Academic Release CASTEP version 24.1 |
 | Ab Initio Total Energy Program                  |
 |                                                 |
 | Authors:                                        |
 | M. Segall, M. Probert, C. Pickard, P. Hasnip,   |
 | S. Clark, K. Refson, J. R. Yates,               |
 | A. Bartok-Partay, M. Payne                      |
 |                                                 |
 | Contributors:                                   |
 | P. Lindan, P. Haynes, J. White, V. Milman,      |
 | N. Govind, M. Gibson, P. Tulip, V. Cocula,      |
 | B. Montanari, D. Quigley, M. Glover,            |
 | L. Bernasconi, A. Perlov, M. Plummer,           |
 | E. McNellis, J. Meyer, J. Gale, D. Jochym       |
 | J. Aarons, B. Walker, R. Gillen, D. Jones       |
 | T. Green, I. J. Bush, C. J. Armstrong,          |
 | E. J. Higgins, E. L. Brown, M. S. McFly,        |
 | J. Wilkins, B-C. Shih, P. J. P. Byrne,          |
 | R. J. Maurer, J. C. Womack, J. Dziedzic,        |
 | L. LeBlanc, T. K. Stenczel, J. Kermode,         |
 | S. Sturniolo, B. Shi, B. Durham, M. Evans,      |
 | M. J. Smith, A. Tamerus, Z. Hawkhead,           |
 | V. Ravindran, T. Hollins, S. A. Joyce,          |
 | R. T. Strong, A. M. Reilly                      |
 |                                                 |
 | Copyright (c) 2000 - 2023                       |
 |                                                 |
 |     Distributed under license from Cambridge    |
 |     Enterprise for academic use only.           |
 |                                                 |
 | Please cite                                     |
 |                                                 |
 |     "First principles methods using CASTEP"     |
 |                                                 |
 |         Zeitschrift fuer Kristallographie       |
 |           220(5-6) pp. 567-570 (2005)           |
 |                                                 |
 | S. J. Clark, M. D. Segall, C. J. Pickard,       |
 | P. J. Hasnip, M. J. Probert, K. Refson,         |
 | M. C. Payne                                     |
 |                                                 |
 |       in all publications arising from          |
 |              your use of CASTEP                 |
 |                                                 |
 +-------------------------------------------------+
 |                                                 |
 |              http://www.castep.org              |
 |                                                 |
 +-------------------------------------------------+



 Compiled for linux_x86_64_gfortran10 on Tue, 02 May 2023 15:31:46 +0100
 from code version db08e394c+  default  Mon May 1 16:40:39 2023 +0100
 Compiler: GNU Fortran 10.2.0; Optimisation: fast
 Comms   : Open MPI v4.0.5
 MATHLIBS: openblas (LAPACK version 3.9.0)
 FFT Lib : fftw3 version fftw-3.3.8-sse2-avx-avx2-avx2_128
 Fundamental constants values: CODATA 2018

 Run started: Wed, 07 Feb 2024 17:21:53 +0000
 Info: number of up-spin electrons is not equal to the
       number of down-spins but spin_polarized=false
     - consider setting spin_polarized=true.

 Atomic calculation performed for Al: 1s2 2s2 2p6 3s2 3p1

 Converged in 54 iterations to an ae energy of -6603.783 eV

   ============================================================                
   | Pseudopotential Report - Date of generation  7-02-2024   |                
   ------------------------------------------------------------                
   | Element: Al Ionic charge:  3.00 Level of theory: PBE     |                
   | Atomic Solver: Koelling-Harmon                           |                
   |                                                          |                
   |               Reference Electronic Structure             |                
   |         Orbital         Occupation         Energy        |                
   |            3s              2.000           -0.285        |                
   |            3p              1.000           -0.100        |                
   |                                                          |                
   |                 Pseudopotential Definition               |                
   |        Beta     l      e      Rc     scheme   norm       |                
   |          1      0   -0.285   2.192     qc      0         |                
   |          2      0    0.250   2.192     qc      0         |                
   |          3      1   -0.100   2.192     qc      0         |                
   |          4      1    0.250   2.192     qc      0         |                
   |          5      2    0.000   2.000     qc      0         |                
   |          6      2    0.250   2.000     qc      0         |                
   |         loc     3    0.000   2.192     pn      0         |                
   |                                                          |                
   | Augmentation charge Rinner = 1.398                       |                
   | Partial core correction Rc = 1.398                       |                
   ------------------------------------------------------------                
   | "3|2.2|2.2|1.4|4|5|5|30:31:32U2U2"                       |                
   ------------------------------------------------------------                
   |      Author: Chris J. Pickard, Cambridge University      |                
   ============================================================                

 Atomic calculation performed for Ti: 1s2 2s2 2p6 3s2 3p6 3d2 4s2

 Converged in 79 iterations to an ae energy of -23226.658 eV

   ============================================================                
   | Pseudopotential Report - Date of generation  7-02-2024   |                
   ------------------------------------------------------------                
   | Element: Ti Ionic charge: 12.00 Level of theory: PBE     |                
   | Atomic Solver: Koelling-Harmon                           |                
   |                                                          |                
   |               Reference Electronic Structure             |                
   |         Orbital         Occupation         Energy        |                
   |            3s              2.000           -2.302        |                
   |            3p              6.000           -1.428        |                
   |            4s              2.000           -0.164        |                
   |            3d              2.000           -0.157        |                
   |                                                          |                
   |                 Pseudopotential Definition               |                
   |        Beta     l      e      Rc     scheme   norm       |                
   |          1      0   -2.302   1.793     qc      0         |                
   |          2      0   -0.164   1.793     qc      0         |                
   |          3      0    0.250   1.793     qc      0         |                
   |          4      1   -1.428   1.793     qc      0         |                
   |          5      1    0.250   1.793     qc      0         |                
   |          6      2   -0.157   1.793     qc      0         |                
   |          7      2    0.250   1.793     qc      0         |                
   |         loc     3    0.000   1.793     pn      0         |                
   |                                                          |                
   | Augmentation charge Rinner = 1.263                       |                
   | Partial core correction Rc = 1.263                       |                
   ------------------------------------------------------------                
   | "3|1.8|9|10|11|30U:40:31:32(qc=5.5)"                     |                
   ------------------------------------------------------------                
   |      Author: Chris J. Pickard, Cambridge University      |                
   ============================================================                

 Atomic calculation performed for V: 1s2 2s2 2p6 3s2 3p6 3d3 4s2

 Converged in 81 iterations to an ae energy of -25823.733 eV

   ============================================================                
   | Pseudopotential Report - Date of generation  7-02-2024   |                
   ------------------------------------------------------------                
   | Element: V Ionic charge: 13.00 Level of theory: PBE      |                
   | Atomic Solver: Koelling-Harmon                           |                
   |                                                          |                
   |               Reference Electronic Structure             |                
   |         Orbital         Occupation         Energy        |                
   |            3s              2.000           -2.581        |                
   |            3p              6.000           -1.618        |                
   |            3d              3.000           -0.190        |                
   |            4s              2.000           -0.173        |                
   |                                                          |                
   |                 Pseudopotential Definition               |                
   |        Beta     l      e      Rc     scheme   norm       |                
   |          1      0   -2.581   1.803     qc      0         |                
   |          2      0   -0.173   1.803     qc      0         |                
   |          3      0    0.250   1.803     qc      0         |                
   |          4      1   -1.618   1.803     qc      0         |                
   |          5      1    0.250   1.803     qc      0         |                
   |          6      2   -0.190   1.803     qc      0         |                
   |          7      2    0.250   1.803     qc      0         |                
   |         loc     3    0.000   1.803     pn      0         |                
   |                                                          |                
   | Augmentation charge Rinner = 0.600                       |                
   | Partial core correction Rc = 0.600                       |                
   ------------------------------------------------------------                
   | "3|1.8|1.8|0.6|12|14|16|30U:40:31:32(qc=7)"              |                
   ------------------------------------------------------------                
   |      Author: Chris J. Pickard, Cambridge University      |                
   ============================================================                

 Pseudo atomic calculation performed for Al 3s2 3p1

 Converged in 15 iterations to a total energy of -107.1308 eV

 Pseudo atomic calculation performed for Ti 3s2 3p6 3d2 4s2

 Converged in 34 iterations to a total energy of -1587.0236 eV

 Pseudo atomic calculation performed for V 3s2 3p6 3d3 4s2

 Converged in 35 iterations to a total energy of -2065.7874 eV
 Calculation parallelised over 240 processes.
 Data is distributed by G-vector(16-way) and k-point(15-way)

 ************************************ Title ************************************
 

 ***************************** General Parameters ******************************
  
 output verbosity                               : normal  (1)
 write checkpoint data to                       : sqs_hex_sc3x3x3_Ti70Al8V3_frame0_04.check
 type of calculation                            : single point energy
 stress calculation                             : on
 density difference calculation                 : off
 electron localisation func (ELF) calculation   : off
 Hirshfeld analysis                             : off
 polarisation (Berry phase) analysis            : off
 molecular orbital projected DOS                : off
 deltaSCF calculation                           : off
 unlimited duration calculation
 timing information                             : on
 memory usage estimate                          : on
 write extra output files                       : on
 write final potential to formatted file        : off
 write final density to formatted file          : off
 write BibTeX reference list                    : on
 write OTFG pseudopotential files               : on
 write electrostatic potential file             : on
 write bands file                               : on
 checkpoint writing                             : off
  
 output         length unit                     : A
 output           mass unit                     : amu
 output           time unit                     : ps
 output         charge unit                     : e
 output           spin unit                     : hbar/2
 output         energy unit                     : eV
 output          force unit                     : eV/A
 output       velocity unit                     : A/ps
 output       pressure unit                     : GPa
 output     inv_length unit                     : 1/A
 output      frequency unit                     : cm-1
 output force constant unit                     : eV/A**2
 output         volume unit                     : A**3
 output   IR intensity unit                     : (D/A)**2/amu
 output         dipole unit                     : D
 output         efield unit                     : eV/A/e
 output        entropy unit                     : J/mol/K
 output    efield chi2 unit                     : pm/V
  
 wavefunctions paging                           : none
 random number generator seed                   :  172153212
 data distribution                              : k-point only
 optimization strategy                          : maximize speed(+++)

 *********************** Exchange-Correlation Parameters ***********************
  
 using functional                               : Perdew Burke Ernzerhof
 relativistic treatment                         : Koelling-Harmon
 DFT+D: Semi-empirical dispersion correction    : off

 ************************* Pseudopotential Parameters **************************
  
 pseudopotential representation                 : reciprocal space
 <beta|phi> representation                      : reciprocal space
 spin-orbit coupling                            : off

 **************************** Basis Set Parameters *****************************
  
 plane wave basis set cut-off                   :   800.0000   eV
 size of standard grid                          :     2.0000
 size of   fine   gmax                          :    28.9810   1/A
 largest prime factor in FFT                    :          5
 finite basis set correction                    : automatic
 number of sample energies                      :          3
           sample  spacing                      :     5.0000   eV

 **************************** Electronic Parameters ****************************
  
 number of  electrons                           :  903.0    
 net charge of system                           :  0.000    
 treating system as non-spin-polarized
 number of bands                                :        487

 ********************* Electronic Minimization Parameters **********************
  
 Method: Treating system as metallic with density mixing treatment of electrons,
         and number of  SD  steps               :          1
         and number of  CG  steps               :          4
  
 total energy / atom convergence tol.           : 0.1000E-05   eV
 eigen-energy convergence tolerance             : 0.1663E-06   eV
 max force / atom convergence tol.              : ignored
 convergence tolerance window                   :          3   cycles
 max. number of SCF cycles                      :         30
 number of fixed-spin iterations                :         10
 smearing scheme                                : Gaussian
 smearing width                                 : 0.5000E-01   eV
 Fermi energy convergence tolerance             : 0.2721E-13   eV
 periodic dipole correction                     : NONE

 ************************** Density Mixing Parameters **************************
  
 density-mixing scheme                          : Pulay
 max. length of mixing history                  :         20
 charge density mixing amplitude                : 0.8000    
 cut-off energy for mixing                      :  800.0       eV
 charge density mixing g-vector                 :  1.500       1/A

 *********************** Population Analysis Parameters ************************
  
 Population analysis with cutoff                :  3.000       A
 Population analysis output                     : summary and pdos components

 ******************************* Developer Code ********************************
  
 PARALLEL: kpoint=15 : ENDPARALLEL
 no_improve_wvfn

 *******************************************************************************
  

                           -------------------------------
                                      Unit Cell
                           -------------------------------
        Real Lattice(A)                      Reciprocal Lattice(1/A)
     6.8351780   -11.8388760     0.0000600        0.459621191  -0.265362409   0.000002138
     6.8351780    11.8388760    -0.0000200        0.459621191   0.265362409   0.000000417
    -0.0000240     0.0000280     8.6339490       -0.000002129   0.000002459   0.727730185

                       Lattice parameters(A)       Cell Angles
                    a =     13.670356          alpha =   90.000003
                    b =     13.670356          beta  =   89.999989
                    c =      8.633949          gamma =  120.000002

                       Current cell volume =          1397.332548       A**3
                                   density =             2.661762   AMU/A**3
                                           =             4.419960     g/cm^3

                           -------------------------------
                                     Cell Contents
                           -------------------------------
                         Total number of ions in cell =   81
                      Total number of species in cell =    3
                        Max number of any one species =   70

            xxxxxxxxxxxxxxxxxxxxxxxxxxxxxxxxxxxxxxxxxxxxxxxxxxxxxxxxxxxx
            x  Element    Atom        Fractional coordinates of atoms  x
            x            Number           u          v          w      x
            x----------------------------------------------------------x
            x  Al           1        -0.000247  -0.001326   0.330733   x 
            x  Al           2         0.561171   0.117172   0.794242   x 
            x  Al           3         0.552346   0.444073   0.652557   x 
            x  Al           4         0.560953   0.442024   0.973541   x 
            x  Al           5         0.336101   0.664673  -0.004848   x 
            x  Al           6         0.557634   0.777502   0.155799   x 
            x  Al           7         0.450688   0.900541   0.839547   x 
            x  Al           8         0.779252   0.889231   0.832163   x 
            x  Ti           1        -0.001779  -0.002587  -0.003597   x 
            x  Ti           2         0.108549   0.219909   0.163498   x 
            x  Ti           3         0.222498   0.110493   0.162162   x 
            x  Ti           4         0.106828   0.220019   0.497345   x 
            x  Ti           5         0.221687   0.110436   0.495743   x 
            x  Ti           6        -0.001662  -0.002396   0.665211   x 
            x  Ti           7         0.108640   0.218419   0.830768   x 
            x  Ti           8         0.224869   0.111682   0.829381   x 
            x  Ti           9         0.003632   0.336991  -0.002433   x 
            x  Ti          10         0.115427   0.556488   0.162964   x 
            x  Ti          11         0.225239   0.444777   0.164822   x 
            x  Ti          12         0.002551   0.334690   0.332524   x 
            x  Ti          13         0.112660   0.557161   0.495839   x 
            x  Ti          14         0.223460   0.446833   0.499970   x 
            x  Ti          15        -0.000455   0.335350   0.666586   x 
            x  Ti          16         0.109243   0.556232   0.829239   x 
            x  Ti          17         0.221769   0.444388   0.831850   x 
            x  Ti          18         0.000365   0.665542  -0.004249   x 
            x  Ti          19         0.112536   0.889715   0.162442   x 
            x  Ti          20         0.217888   0.775277   0.164047   x 
            x  Ti          21        -0.005464   0.664090   0.328735   x 
            x  Ti          22         0.113142   0.888943   0.494455   x 
            x  Ti          23         0.221125   0.776339   0.492681   x 
            x  Ti          24        -0.004545   0.664505   0.663284   x 
            x  Ti          25         0.109696   0.888687   0.827867   x 
            x  Ti          26         0.224622   0.779543   0.828082   x 
            x  Ti          27         0.333992   0.000309  -0.006320   x 
            x  Ti          28         0.451283   0.234852   0.159903   x 
            x  Ti          29         0.556528   0.110575   0.142310   x 
            x  Ti          30         0.336418   0.005066   0.326601   x 
            x  Ti          31         0.452068   0.236456   0.487518   x 
            x  Ti          32         0.334858   0.002202   0.659143   x 
            x  Ti          33         0.451035   0.232520   0.825347   x 
            x  Ti          34         0.325672   0.330257  -0.001417   x 
            x  Ti          35         0.451406   0.548786   0.155394   x 
            x  Ti          36         0.558241   0.447419   0.310247   x 
            x  Ti          37         0.320581   0.326511   0.328374   x 
            x  Ti          38         0.449629   0.546337   0.489433   x 
            x  Ti          39         0.321492   0.327665   0.659526   x 
            x  Ti          40         0.449650   0.548696   0.821232   x 
            x  Ti          41         0.439522   0.885989   0.165315   x 
            x  Ti          42         0.335897   0.666633   0.329957   x 
            x  Ti          43         0.446670   0.896220   0.507807   x 
            x  Ti          44         0.552530   0.775180   0.482160   x 
            x  Ti          45         0.337370   0.669584   0.661591   x 
            x  Ti          46         0.554897   0.777830   0.828963   x 
            x  Ti          47         0.667139  -0.002828  -0.004772   x 
            x  Ti          48         0.780331   0.221598   0.168313   x 
            x  Ti          49         0.888455   0.112281   0.165778   x 
            x  Ti          50         0.662668  -0.004470   0.329432   x 
            x  Ti          51         0.770173   0.217601   0.500950   x 
            x  Ti          52         0.886936   0.114703   0.494753   x 
            x  Ti          53         0.667112  -0.005315   0.663059   x 
            x  Ti          54         0.782897   0.225112   0.839423   x 
            x  Ti          55         0.889225   0.112704   0.830038   x 
            x  Ti          56         0.769794   0.544721   0.135186   x 
            x  Ti          57         0.892755   0.443330   0.164231   x 
            x  Ti          58         0.671932   0.327119   0.321028   x 
            x  Ti          59         0.762578   0.547571   0.485135   x 
            x  Ti          60         0.888702   0.444169   0.500467   x 
            x  Ti          61         0.669707   0.333575   0.663686   x 
            x  Ti          62         0.877221   0.448702   0.837333   x 
            x  Ti          63         0.671184   0.674149  -0.005626   x 
            x  Ti          64         0.782764   0.892879   0.161762   x 
            x  Ti          65         0.888461   0.774609   0.169204   x 
            x  Ti          66         0.675867   0.682590   0.325152   x 
            x  Ti          67         0.781058   0.892616   0.504270   x 
            x  Ti          68         0.889891   0.775228   0.499151   x 
            x  Ti          69         0.670677   0.675987   0.657990   x 
            x  Ti          70         0.885427   0.769594   0.834433   x 
            x  V            1         0.552039   0.117615   0.474329   x 
            x  V            2         0.663753   0.316479  -0.004301   x 
            x  V            3         0.761099   0.553177   0.803565   x 
            xxxxxxxxxxxxxxxxxxxxxxxxxxxxxxxxxxxxxxxxxxxxxxxxxxxxxxxxxxxx


                         No user defined ionic velocities

                           -------------------------------
                                   Details of Species
                           -------------------------------

                               Mass of species in AMU
                                    Al   26.9815400
                                    Ti   47.8670000
                                    V   50.9415000

                          Electric Quadrupole Moment (Barn)
                                    Al    0.1466000 Isotope 27
                                    Ti    0.3020000 Isotope 47
                                    V   -0.0520000 Isotope 51

                          Files used for pseudopotentials:
                                    Al 3|2.2|2.2|1.4|4|5|5|30:31:32U2U2
                                    Ti 3|1.8|9|10|11|30U:40:31:32(qc=5.5)
                                    V 3|1.8|1.8|0.6|12|14|16|30U:40:31:32(qc=7)

                           -------------------------------
                              k-Points For BZ Sampling
                           -------------------------------
                       MP grid size for SCF calculation is  5  5  6
                            with an offset of   0.000  0.000  0.000
                       Number of kpoints used =            75

                           -------------------------------
                               Symmetry and Constraints
                           -------------------------------

                      Maximum deviation from symmetry =  0.00000         ANG

                      Number of symmetry operations   =           1
                      Number of ionic constraints     =           3
                      Point group of crystal =     1: C1, 1, 1
                      Space group of crystal =     1: P1, P 1

             Set iprint > 1 for details on symmetry rotations/translations

                         Centre of mass is constrained
             Set iprint > 1 for details of linear ionic constraints

                         Number of cell constraints= 0
                         Cell constraints are:  1 2 3 4 5 6

                         External pressure/stress (GPa)
                          0.00000   0.00000   0.00000
                                    0.00000   0.00000
                                              0.00000
 
+---------------- MEMORY AND SCRATCH DISK ESTIMATES PER PROCESS --------------+
|                                                     Memory          Disk    |
| Baseline code, static data and system overhead      591.0 MB         0.0 MB |
| BLAS internal memory storage                          0.0 MB         0.0 MB |
| Model and support data                              931.4 MB         0.0 MB |
| Electronic energy minimisation requirements         448.5 MB         0.0 MB |
| Force calculation requirements                       15.9 MB         0.0 MB |
| Stress calculation requirements                      17.2 MB         0.0 MB |
|                                               ----------------------------- |
| Approx. total storage required per process         1970.9 MB         0.0 MB |
|                                                                             |
| Requirements will fluctuate during execution and may exceed these estimates |
+-----------------------------------------------------------------------------+
Calculating finite basis set correction with  3 cut-off energies.
Calculating total energy with cut-off of  790.000 eV.
------------------------------------------------------------------------ <-- SCF
SCF loop      Energy           Fermi           Energy gain       Timer   <-- SCF
                               energy          per atom          (sec)   <-- SCF
------------------------------------------------------------------------ <-- SCF
Initial  -1.06773433E+005  0.00000000E+000                        34.35  <-- SCF
      1  -1.15671697E+005  1.16607726E+001   1.09855118E+002     231.45  <-- SCF
      2  -1.18523167E+005  9.03002117E+000   3.52033357E+001     394.48  <-- SCF
      3  -1.18686124E+005  8.80249018E+000   2.01181084E+000     561.78  <-- SCF
      4  -1.18712289E+005  7.94871173E+000   3.23020184E-001     759.06  <-- SCF
      5  -1.18694698E+005  8.17761979E+000  -2.17167939E-001     959.26  <-- SCF
      6  -1.18687844E+005  8.35253889E+000  -8.46173653E-002    1153.01  <-- SCF
      7  -1.18682712E+005  8.37589296E+000  -6.33547250E-002    1353.81  <-- SCF
      8  -1.18683825E+005  8.32351394E+000   1.37314463E-002    1549.75  <-- SCF
      9  -1.18682607E+005  8.32100417E+000  -1.50367196E-002    1732.98  <-- SCF
     10  -1.18682309E+005  8.30300493E+000  -3.67090891E-003    1922.10  <-- SCF
     11  -1.18682392E+005  8.29735802E+000   1.01990485E-003    2114.51  <-- SCF
     12  -1.18682317E+005  8.29341392E+000  -9.23781618E-004    2291.48  <-- SCF
     13  -1.18682296E+005  8.29421495E+000  -2.66349853E-004    2479.45  <-- SCF
     14  -1.18682296E+005  8.29454676E+000   6.38122693E-006    2660.74  <-- SCF
     15  -1.18682294E+005  8.29456879E+000  -2.83362629E-005    2820.39  <-- SCF
     16  -1.18682294E+005  8.29459466E+000   3.18294644E-006    2976.01  <-- SCF
     17  -1.18682294E+005  8.29473306E+000  -3.53382339E-006    3118.17  <-- SCF
     18  -1.18682294E+005  8.29473168E+000   1.83014455E-008    3227.34  <-- SCF
     19  -1.18682294E+005  8.29472466E+000  -4.59856702E-008    3336.93  <-- SCF
------------------------------------------------------------------------ <-- SCF
 
Final energy, E             =  -118682.1817690     eV
Final free energy (E-TS)    =  -118682.2937914     eV
(energies not corrected for finite basis set)
 
NB est. 0K energy (E-0.5TS)      =  -118682.2377802     eV
 
Calculating total energy with cut-off of  795.000 eV.
------------------------------------------------------------------------ <-- SCF
SCF loop      Energy           Fermi           Energy gain       Timer   <-- SCF
                               energy          per atom          (sec)   <-- SCF
------------------------------------------------------------------------ <-- SCF
Initial  -1.18682182E+005  0.00000000E+000                      3367.85  <-- SCF
      1  -1.18682296E+005  8.29479248E+000   1.41477251E-003    3512.72  <-- SCF
      2  -1.18682297E+005  8.29479097E+000   3.54618334E-006    3661.92  <-- SCF
      3  -1.18682334E+005  8.29344876E+000   4.60202056E-004    3845.39  <-- SCF
      4  -1.18682297E+005  8.29528806E+000  -4.61111635E-004    4023.87  <-- SCF
      5  -1.18682295E+005  8.29474185E+000  -1.88889397E-005    4190.87  <-- SCF
      6  -1.18682295E+005  8.29477999E+000   3.51095720E-006    4338.66  <-- SCF
      7  -1.18682295E+005  8.29465248E+000  -4.74005269E-007    4452.01  <-- SCF
      8  -1.18682295E+005  8.29468746E+000  -2.30386659E-007    4559.10  <-- SCF
------------------------------------------------------------------------ <-- SCF
 
Final energy, E             =  -118682.1832154     eV
Final free energy (E-TS)    =  -118682.2952269     eV
(energies not corrected for finite basis set)
 
NB est. 0K energy (E-0.5TS)      =  -118682.2392211     eV
 
Calculating total energy with cut-off of  800.000 eV.
------------------------------------------------------------------------ <-- SCF
SCF loop      Energy           Fermi           Energy gain       Timer   <-- SCF
                               energy          per atom          (sec)   <-- SCF
------------------------------------------------------------------------ <-- SCF
Initial  -1.18682183E+005  0.00000000E+000                      4590.01  <-- SCF
      1  -1.18682305E+005  8.29468313E+000   1.51243034E-003    4762.56  <-- SCF
      2  -1.18682306E+005  8.29467943E+000   3.35582985E-006    4908.68  <-- SCF
      3  -1.18682534E+005  8.29258090E+000   2.82292234E-003    5096.67  <-- SCF
      4  -1.18682306E+005  8.29708107E+000  -2.82509552E-003    5276.79  <-- SCF
      5  -1.18682295E+005  8.29487350E+000  -1.28198692E-004    5447.63  <-- SCF
      6  -1.18682297E+005  8.29475170E+000   2.28539865E-005    5616.45  <-- SCF
      7  -1.18682297E+005  8.29458538E+000  -4.75402069E-006    5765.69  <-- SCF
      8  -1.18682297E+005  8.29462854E+000  -4.80655924E-007    5878.87  <-- SCF
      9  -1.18682297E+005  8.29465631E+000  -2.02099301E-007    5988.71  <-- SCF
------------------------------------------------------------------------ <-- SCF
 
Final energy, E             =  -118682.1845728     eV
Final free energy (E-TS)    =  -118682.2965967     eV
(energies not corrected for finite basis set)
 
NB est. 0K energy (E-0.5TS)      =  -118682.2405848     eV
 
 For future reference: finite basis dEtot/dlog(Ecut) =      -0.223105eV
 Total energy corrected for finite basis set = -118682.296595 eV

 ************************** Forces **************************
 *                                                          *
 *               Cartesian components (eV/A)                *
 * -------------------------------------------------------- *
 *                         x            y            z      *
 *                                                          *
 * Al              1      0.02491      0.03035      0.00847 *
 * Al              2     -0.20897     -0.04695      0.01947 *
 * Al              3      0.09712     -0.00577      0.00255 *
 * Al              4      0.01827      0.05553     -0.00732 *
 * Al              5     -0.04626      0.01040     -0.04979 *
 * Al              6     -0.05311      0.05054     -0.02789 *
 * Al              7     -0.11135     -0.14000      0.16698 *
 * Al              8     -0.01724      0.04667      0.03819 *
 * Ti              1      0.02860     -0.05674      0.09055 *
 * Ti              2     -0.12683      0.02417      0.03068 *
 * Ti              3      0.05129     -0.05258     -0.00882 *
 * Ti              4     -0.09054      0.00779     -0.03405 *
 * Ti              5     -0.00448      0.01570     -0.05828 *
 * Ti              6      0.03197     -0.00544     -0.09949 *
 * Ti              7     -0.02476      0.08800     -0.00001 *
 * Ti              8      0.08391     -0.03693      0.00936 *
 * Ti              9      0.01907     -0.04472     -0.04157 *
 * Ti             10      0.00354      0.04520      0.01613 *
 * Ti             11      0.07953     -0.04697     -0.03997 *
 * Ti             12     -0.04743      0.03741     -0.00720 *
 * Ti             13     -0.03429      0.02674      0.00596 *
 * Ti             14      0.05266     -0.02524     -0.06042 *
 * Ti             15      0.00197     -0.02258      0.03682 *
 * Ti             16      0.06192     -0.00106      0.01206 *
 * Ti             17      0.06391      0.03941     -0.05998 *
 * Ti             18     -0.10260      0.03187     -0.08283 *
 * Ti             19     -0.07407      0.04601      0.04593 *
 * Ti             20      0.11458     -0.03070      0.03006 *
 * Ti             21      0.04320     -0.04786     -0.01249 *
 * Ti             22     -0.00879      0.03882     -0.01887 *
 * Ti             23      0.03200      0.02648     -0.03722 *
 * Ti             24      0.00474     -0.01243      0.08971 *
 * Ti             25      0.01088     -0.11355     -0.02605 *
 * Ti             26     -0.05506     -0.05815      0.02252 *
 * Ti             27     -0.04524      0.04921      0.05275 *
 * Ti             28      0.10723     -0.03054      0.01030 *
 * Ti             29      0.03325      0.05635      0.09606 *
 * Ti             30     -0.00967      0.04410     -0.03125 *
 * Ti             31     -0.05371     -0.05320     -0.13613 *
 * Ti             32      0.01882     -0.04251      0.05011 *
 * Ti             33      0.02072     -0.09747      0.00711 *
 * Ti             34     -0.06802      0.06074     -0.06963 *
 * Ti             35     -0.01123      0.01281      0.11967 *
 * Ti             36     -0.11302      0.01129      0.19486 *
 * Ti             37      0.04620     -0.01240     -0.08326 *
 * Ti             38      0.06269      0.01522     -0.01613 *
 * Ti             39     -0.01268     -0.00521      0.09910 *
 * Ti             40     -0.04199     -0.00183     -0.02419 *
 * Ti             41      0.04168      0.00504     -0.01104 *
 * Ti             42      0.01223      0.03638     -0.15142 *
 * Ti             43     -0.00322     -0.08158      0.04362 *
 * Ti             44      0.08220      0.05595     -0.09055 *
 * Ti             45      0.04965      0.05954      0.07502 *
 * Ti             46     -0.05107     -0.06979     -0.01798 *
 * Ti             47      0.00449      0.07005      0.01168 *
 * Ti             48      0.05416      0.01199     -0.06410 *
 * Ti             49     -0.04563     -0.01542     -0.00223 *
 * Ti             50      0.04495      0.03890     -0.05795 *
 * Ti             51      0.00579     -0.13687     -0.05091 *
 * Ti             52     -0.02094     -0.03598     -0.06052 *
 * Ti             53     -0.03847     -0.03050      0.03124 *
 * Ti             54     -0.02392     -0.03242      0.12112 *
 * Ti             55      0.08335      0.16448      0.02444 *
 * Ti             56      0.08202      0.03930      0.24912 *
 * Ti             57     -0.04011      0.07531     -0.10199 *
 * Ti             58      0.02102      0.13842      0.08668 *
 * Ti             59      0.05227     -0.07159     -0.06229 *
 * Ti             60     -0.00556      0.02945     -0.06156 *
 * Ti             61     -0.10611     -0.02173     -0.03091 *
 * Ti             62     -0.02962      0.03426      0.02832 *
 * Ti             63     -0.01802      0.02995     -0.01982 *
 * Ti             64      0.02843     -0.01199      0.01030 *
 * Ti             65     -0.01807      0.01630     -0.04553 *
 * Ti             66     -0.10965     -0.00764     -0.07862 *
 * Ti             67      0.04173      0.00779      0.01723 *
 * Ti             68     -0.03997      0.00764     -0.15239 *
 * Ti             69     -0.00754     -0.01345      0.03534 *
 * Ti             70     -0.02649     -0.08692     -0.09433 *
 * V               1     -0.05739      0.02507     -0.00235 *
 * V               2      0.08438      0.05394      0.06840 *
 * V               3      0.20175     -0.16385      0.13144 *
 *                                                          *
 ************************************************************

 ***************** Stress Tensor *****************
 *                                               *
 *          Cartesian components (GPa)           *
 * --------------------------------------------- *
 *             x             y             z     *
 *                                               *
 *  x      1.042566      0.023620     -0.231920  *
 *  y      0.023620      1.109860      0.256847  *
 *  z     -0.231920      0.256847      4.335434  *
 *                                               *
 *  Pressure:   -2.1626                          *
 *                                               *
 *************************************************

 Pseudo atomic calculation performed for Al 3s2 3p1

 Converged in 15 iterations to a total energy of -107.1308 eV

 Pseudo atomic calculation performed for Ti 3s2 3p6 3d2 4s2

 Converged in 34 iterations to a total energy of -1587.0236 eV

 Pseudo atomic calculation performed for V 3s2 3p6 3d3 4s2

 Converged in 35 iterations to a total energy of -2065.7874 eV
Charge spilling parameter for spin component 1 = 0.08%

            Orbital Populations       
     Ion    Atom   Orbital             Charge
  -------------------------------------------
     Al     1      S                    0.922
     Al     1      Px                   0.676
     Al     1      Py                   0.662
     Al     1      Pz                   0.665
     Al     2      S                    0.967
     Al     2      Px                   0.699
     Al     2      Py                   0.723
     Al     2      Pz                   0.666
     Al     3      S                    0.968
     Al     3      Px                   0.738
     Al     3      Py                   0.746
     Al     3      Pz                   0.628
     Al     4      S                    0.972
     Al     4      Px                   0.738
     Al     4      Py                   0.722
     Al     4      Pz                   0.632
     Al     5      S                    0.948
     Al     5      Px                   0.630
     Al     5      Py                   0.657
     Al     5      Pz                   0.686
     Al     6      S                    0.978
     Al     6      Px                   0.695
     Al     6      Py                   0.719
     Al     6      Pz                   0.669
     Al     7      S                    0.982
     Al     7      Px                   0.670
     Al     7      Py                   0.717
     Al     7      Pz                   0.685
     Al     8      S                    0.959
     Al     8      Px                   0.724
     Al     8      Py                   0.709
     Al     8      Pz                   0.661
     Ti     1      S                    2.000
     Ti     1      Px                   2.002
     Ti     1      Py                   2.002
     Ti     1      Pz                   2.004
     Ti     1      S                    0.321
     Ti     1      Dzz                  0.474
     Ti     1      Dzy                  0.617
     Ti     1      Dzx                  0.633
     Ti     1      Dxx-yy               0.453
     Ti     1      Dxy                  0.447
     Ti     1      Px                   0.335
     Ti     1      Py                   0.350
     Ti     1      Pz                   0.308
     Ti     2      S                    2.004
     Ti     2      Px                   2.007
     Ti     2      Py                   2.007
     Ti     2      Pz                   2.006
     Ti     2      S                    0.284
     Ti     2      Dzz                  0.587
     Ti     2      Dzy                  0.506
     Ti     2      Dzx                  0.500
     Ti     2      Dxx-yy               0.602
     Ti     2      Dxy                  0.598
     Ti     2      Px                   0.292
     Ti     2      Py                   0.303
     Ti     2      Pz                   0.336
     Ti     3      S                    2.003
     Ti     3      Px                   2.006
     Ti     3      Py                   2.006
     Ti     3      Pz                   2.005
     Ti     3      S                    0.289
     Ti     3      Dzz                  0.593
     Ti     3      Dzy                  0.496
     Ti     3      Dzx                  0.487
     Ti     3      Dxx-yy               0.607
     Ti     3      Dxy                  0.602
     Ti     3      Px                   0.300
     Ti     3      Py                   0.314
     Ti     3      Pz                   0.328
     Ti     4      S                    2.004
     Ti     4      Px                   2.007
     Ti     4      Py                   2.007
     Ti     4      Pz                   2.006
     Ti     4      S                    0.277
     Ti     4      Dzz                  0.591
     Ti     4      Dzy                  0.502
     Ti     4      Dzx                  0.493
     Ti     4      Dxx-yy               0.600
     Ti     4      Dxy                  0.606
     Ti     4      Px                   0.292
     Ti     4      Py                   0.304
     Ti     4      Pz                   0.329
     Ti     5      S                    2.003
     Ti     5      Px                   2.006
     Ti     5      Py                   2.006
     Ti     5      Pz                   2.005
     Ti     5      S                    0.291
     Ti     5      Dzz                  0.594
     Ti     5      Dzy                  0.492
     Ti     5      Dzx                  0.487
     Ti     5      Dxx-yy               0.608
     Ti     5      Dxy                  0.603
     Ti     5      Px                   0.302
     Ti     5      Py                   0.315
     Ti     5      Pz                   0.328
     Ti     6      S                    2.000
     Ti     6      Px                   2.002
     Ti     6      Py                   2.002
     Ti     6      Pz                   2.004
     Ti     6      S                    0.319
     Ti     6      Dzz                  0.469
     Ti     6      Dzy                  0.622
     Ti     6      Dzx                  0.645
     Ti     6      Dxx-yy               0.451
     Ti     6      Dxy                  0.437
     Ti     6      Px                   0.329
     Ti     6      Py                   0.346
     Ti     6      Pz                   0.308
     Ti     7      S                    2.004
     Ti     7      Px                   2.007
     Ti     7      Py                   2.006
     Ti     7      Pz                   2.006
     Ti     7      S                    0.274
     Ti     7      Dzz                  0.574
     Ti     7      Dzy                  0.497
     Ti     7      Dzx                  0.501
     Ti     7      Dxx-yy               0.602
     Ti     7      Dxy                  0.610
     Ti     7      Px                   0.313
     Ti     7      Py                   0.317
     Ti     7      Pz                   0.345
     Ti     8      S                    2.003
     Ti     8      Px                   2.006
     Ti     8      Py                   2.006
     Ti     8      Pz                   2.005
     Ti     8      S                    0.280
     Ti     8      Dzz                  0.587
     Ti     8      Dzy                  0.498
     Ti     8      Dzx                  0.498
     Ti     8      Dxx-yy               0.594
     Ti     8      Dxy                  0.593
     Ti     8      Px                   0.320
     Ti     8      Py                   0.323
     Ti     8      Pz                   0.340
     Ti     9      S                    2.000
     Ti     9      Px                   2.002
     Ti     9      Py                   2.002
     Ti     9      Pz                   2.003
     Ti     9      S                    0.307
     Ti     9      Dzz                  0.490
     Ti     9      Dzy                  0.582
     Ti     9      Dzx                  0.604
     Ti     9      Dxx-yy               0.473
     Ti     9      Dxy                  0.455
     Ti     9      Px                   0.356
     Ti     9      Py                   0.346
     Ti     9      Pz                   0.340
     Ti    10      S                    2.003
     Ti    10      Px                   2.006
     Ti    10      Py                   2.006
     Ti    10      Pz                   2.006
     Ti    10      S                    0.277
     Ti    10      Dzz                  0.576
     Ti    10      Dzy                  0.512
     Ti    10      Dzx                  0.507
     Ti    10      Dxx-yy               0.612
     Ti    10      Dxy                  0.591
     Ti    10      Px                   0.280
     Ti    10      Py                   0.300
     Ti    10      Pz                   0.336
     Ti    11      S                    2.004
     Ti    11      Px                   2.006
     Ti    11      Py                   2.007
     Ti    11      Pz                   2.006
     Ti    11      S                    0.290
     Ti    11      Dzz                  0.593
     Ti    11      Dzy                  0.493
     Ti    11      Dzx                  0.481
     Ti    11      Dxx-yy               0.597
     Ti    11      Dxy                  0.617
     Ti    11      Px                   0.322
     Ti    11      Py                   0.304
     Ti    11      Pz                   0.326
     Ti    12      S                    2.000
     Ti    12      Px                   2.002
     Ti    12      Py                   2.002
     Ti    12      Pz                   2.003
     Ti    12      S                    0.304
     Ti    12      Dzz                  0.497
     Ti    12      Dzy                  0.605
     Ti    12      Dzx                  0.587
     Ti    12      Dxx-yy               0.446
     Ti    12      Dxy                  0.468
     Ti    12      Px                   0.346
     Ti    12      Py                   0.347
     Ti    12      Pz                   0.342
     Ti    13      S                    2.003
     Ti    13      Px                   2.006
     Ti    13      Py                   2.006
     Ti    13      Pz                   2.005
     Ti    13      S                    0.269
     Ti    13      Dzz                  0.566
     Ti    13      Dzy                  0.501
     Ti    13      Dzx                  0.505
     Ti    13      Dxx-yy               0.608
     Ti    13      Dxy                  0.607
     Ti    13      Px                   0.320
     Ti    13      Py                   0.313
     Ti    13      Pz                   0.345
     Ti    14      S                    2.004
     Ti    14      Px                   2.006
     Ti    14      Py                   2.006
     Ti    14      Pz                   2.005
     Ti    14      S                    0.283
     Ti    14      Dzz                  0.586
     Ti    14      Dzy                  0.504
     Ti    14      Dzx                  0.479
     Ti    14      Dxx-yy               0.594
     Ti    14      Dxy                  0.612
     Ti    14      Px                   0.329
     Ti    14      Py                   0.313
     Ti    14      Pz                   0.337
     Ti    15      S                    2.000
     Ti    15      Px                   2.002
     Ti    15      Py                   2.002
     Ti    15      Pz                   2.003
     Ti    15      S                    0.313
     Ti    15      Dzz                  0.488
     Ti    15      Dzy                  0.603
     Ti    15      Dzx                  0.604
     Ti    15      Dxx-yy               0.465
     Ti    15      Dxy                  0.441
     Ti    15      Px                   0.351
     Ti    15      Py                   0.345
     Ti    15      Pz                   0.343
     Ti    16      S                    2.003
     Ti    16      Px                   2.005
     Ti    16      Py                   2.006
     Ti    16      Pz                   2.005
     Ti    16      S                    0.284
     Ti    16      Dzz                  0.602
     Ti    16      Dzy                  0.494
     Ti    16      Dzx                  0.483
     Ti    16      Dxx-yy               0.591
     Ti    16      Dxy                  0.602
     Ti    16      Px                   0.311
     Ti    16      Py                   0.312
     Ti    16      Pz                   0.324
     Ti    17      S                    2.003
     Ti    17      Px                   2.006
     Ti    17      Py                   2.006
     Ti    17      Pz                   2.005
     Ti    17      S                    0.294
     Ti    17      Dzz                  0.603
     Ti    17      Dzy                  0.504
     Ti    17      Dzx                  0.481
     Ti    17      Dxx-yy               0.593
     Ti    17      Dxy                  0.593
     Ti    17      Px                   0.309
     Ti    17      Py                   0.313
     Ti    17      Pz                   0.330
     Ti    18      S                    2.000
     Ti    18      Px                   2.002
     Ti    18      Py                   2.002
     Ti    18      Pz                   2.003
     Ti    18      S                    0.310
     Ti    18      Dzz                  0.486
     Ti    18      Dzy                  0.603
     Ti    18      Dzx                  0.587
     Ti    18      Dxx-yy               0.460
     Ti    18      Dxy                  0.473
     Ti    18      Px                   0.353
     Ti    18      Py                   0.344
     Ti    18      Pz                   0.347
     Ti    19      S                    2.003
     Ti    19      Px                   2.006
     Ti    19      Py                   2.006
     Ti    19      Pz                   2.005
     Ti    19      S                    0.280
     Ti    19      Dzz                  0.571
     Ti    19      Dzy                  0.500
     Ti    19      Dzx                  0.506
     Ti    19      Dxx-yy               0.609
     Ti    19      Dxy                  0.607
     Ti    19      Px                   0.304
     Ti    19      Py                   0.292
     Ti    19      Pz                   0.339
     Ti    20      S                    2.003
     Ti    20      Px                   2.006
     Ti    20      Py                   2.006
     Ti    20      Pz                   2.006
     Ti    20      S                    0.281
     Ti    20      Dzz                  0.572
     Ti    20      Dzy                  0.499
     Ti    20      Dzx                  0.507
     Ti    20      Dxx-yy               0.604
     Ti    20      Dxy                  0.608
     Ti    20      Px                   0.300
     Ti    20      Py                   0.291
     Ti    20      Pz                   0.339
     Ti    21      S                    1.999
     Ti    21      Px                   2.002
     Ti    21      Py                   2.002
     Ti    21      Pz                   2.003
     Ti    21      S                    0.313
     Ti    21      Dzz                  0.504
     Ti    21      Dzy                  0.598
     Ti    21      Dzx                  0.588
     Ti    21      Dxx-yy               0.446
     Ti    21      Dxy                  0.464
     Ti    21      Px                   0.352
     Ti    21      Py                   0.345
     Ti    21      Pz                   0.337
     Ti    22      S                    2.003
     Ti    22      Px                   2.006
     Ti    22      Py                   2.006
     Ti    22      Pz                   2.005
     Ti    22      S                    0.278
     Ti    22      Dzz                  0.580
     Ti    22      Dzy                  0.497
     Ti    22      Dzx                  0.507
     Ti    22      Dxx-yy               0.602
     Ti    22      Dxy                  0.606
     Ti    22      Px                   0.308
     Ti    22      Py                   0.291
     Ti    22      Pz                   0.337
     Ti    23      S                    2.003
     Ti    23      Px                   2.006
     Ti    23      Py                   2.006
     Ti    23      Pz                   2.005
     Ti    23      S                    0.273
     Ti    23      Dzz                  0.560
     Ti    23      Dzy                  0.506
     Ti    23      Dzx                  0.501
     Ti    23      Dxx-yy               0.607
     Ti    23      Dxy                  0.600
     Ti    23      Px                   0.303
     Ti    23      Py                   0.314
     Ti    23      Pz                   0.350
     Ti    24      S                    2.000
     Ti    24      Px                   2.002
     Ti    24      Py                   2.002
     Ti    24      Pz                   2.003
     Ti    24      S                    0.313
     Ti    24      Dzz                  0.483
     Ti    24      Dzy                  0.617
     Ti    24      Dzx                  0.599
     Ti    24      Dxx-yy               0.440
     Ti    24      Dxy                  0.466
     Ti    24      Px                   0.347
     Ti    24      Py                   0.347
     Ti    24      Pz                   0.347
     Ti    25      S                    2.003
     Ti    25      Px                   2.005
     Ti    25      Py                   2.006
     Ti    25      Pz                   2.005
     Ti    25      S                    0.276
     Ti    25      Dzz                  0.576
     Ti    25      Dzy                  0.494
     Ti    25      Dzx                  0.494
     Ti    25      Dxx-yy               0.611
     Ti    25      Dxy                  0.594
     Ti    25      Px                   0.326
     Ti    25      Py                   0.326
     Ti    25      Pz                   0.340
     Ti    26      S                    2.003
     Ti    26      Px                   2.006
     Ti    26      Py                   2.005
     Ti    26      Pz                   2.004
     Ti    26      S                    0.275
     Ti    26      Dzz                  0.605
     Ti    26      Dzy                  0.480
     Ti    26      Dzx                  0.502
     Ti    26      Dxx-yy               0.582
     Ti    26      Dxy                  0.605
     Ti    26      Px                   0.289
     Ti    26      Py                   0.287
     Ti    26      Pz                   0.340
     Ti    27      S                    2.000
     Ti    27      Px                   2.002
     Ti    27      Py                   2.003
     Ti    27      Pz                   2.003
     Ti    27      S                    0.318
     Ti    27      Dzz                  0.487
     Ti    27      Dzy                  0.606
     Ti    27      Dzx                  0.588
     Ti    27      Dxx-yy               0.445
     Ti    27      Dxy                  0.490
     Ti    27      Px                   0.335
     Ti    27      Py                   0.323
     Ti    27      Pz                   0.335
     Ti    28      S                    2.002
     Ti    28      Px                   2.004
     Ti    28      Py                   2.004
     Ti    28      Pz                   2.004
     Ti    28      S                    0.292
     Ti    28      Dzz                  0.567
     Ti    28      Dzy                  0.512
     Ti    28      Dzx                  0.537
     Ti    28      Dxx-yy               0.514
     Ti    28      Dxy                  0.563
     Ti    28      Px                   0.308
     Ti    28      Py                   0.318
     Ti    28      Pz                   0.354
     Ti    29      S                    2.002
     Ti    29      Px                   2.006
     Ti    29      Py                   2.005
     Ti    29      Pz                   2.004
     Ti    29      S                    0.302
     Ti    29      Dzz                  0.549
     Ti    29      Dzy                  0.471
     Ti    29      Dzx                  0.492
     Ti    29      Dxx-yy               0.622
     Ti    29      Dxy                  0.606
     Ti    29      Px                   0.337
     Ti    29      Py                   0.332
     Ti    29      Pz                   0.272
     Ti    30      S                    1.999
     Ti    30      Px                   2.002
     Ti    30      Py                   2.002
     Ti    30      Pz                   2.002
     Ti    30      S                    0.311
     Ti    30      Dzz                  0.491
     Ti    30      Dzy                  0.600
     Ti    30      Dzx                  0.572
     Ti    30      Dxx-yy               0.461
     Ti    30      Dxy                  0.469
     Ti    30      Px                   0.365
     Ti    30      Py                   0.357
     Ti    30      Pz                   0.336
     Ti    31      S                    2.002
     Ti    31      Px                   2.004
     Ti    31      Py                   2.004
     Ti    31      Pz                   2.004
     Ti    31      S                    0.283
     Ti    31      Dzz                  0.546
     Ti    31      Dzy                  0.490
     Ti    31      Dzx                  0.554
     Ti    31      Dxx-yy               0.551
     Ti    31      Dxy                  0.552
     Ti    31      Px                   0.306
     Ti    31      Py                   0.302
     Ti    31      Pz                   0.352
     Ti    32      S                    2.000
     Ti    32      Px                   2.002
     Ti    32      Py                   2.002
     Ti    32      Pz                   2.003
     Ti    32      S                    0.319
     Ti    32      Dzz                  0.508
     Ti    32      Dzy                  0.600
     Ti    32      Dzx                  0.597
     Ti    32      Dxx-yy               0.437
     Ti    32      Dxy                  0.479
     Ti    32      Px                   0.331
     Ti    32      Py                   0.313
     Ti    32      Pz                   0.338
     Ti    33      S                    2.002
     Ti    33      Px                   2.004
     Ti    33      Py                   2.005
     Ti    33      Pz                   2.004
     Ti    33      S                    0.286
     Ti    33      Dzz                  0.586
     Ti    33      Dzy                  0.480
     Ti    33      Dzx                  0.525
     Ti    33      Dxx-yy               0.545
     Ti    33      Dxy                  0.589
     Ti    33      Px                   0.303
     Ti    33      Py                   0.277
     Ti    33      Pz                   0.355
     Ti    34      S                    2.001
     Ti    34      Px                   2.004
     Ti    34      Py                   2.003
     Ti    34      Pz                   2.004
     Ti    34      S                    0.308
     Ti    34      Dzz                  0.517
     Ti    34      Dzy                  0.591
     Ti    34      Dzx                  0.564
     Ti    34      Dxx-yy               0.485
     Ti    34      Dxy                  0.485
     Ti    34      Px                   0.308
     Ti    34      Py                   0.345
     Ti    34      Pz                   0.338
     Ti    35      S                    2.002
     Ti    35      Px                   2.005
     Ti    35      Py                   2.004
     Ti    35      Pz                   2.004
     Ti    35      S                    0.296
     Ti    35      Dzz                  0.596
     Ti    35      Dzy                  0.537
     Ti    35      Dzx                  0.506
     Ti    35      Dxx-yy               0.558
     Ti    35      Dxy                  0.533
     Ti    35      Px                   0.302
     Ti    35      Py                   0.263
     Ti    35      Pz                   0.345
     Ti    36      S                    2.003
     Ti    36      Px                   2.006
     Ti    36      Py                   2.006
     Ti    36      Pz                   2.005
     Ti    36      S                    0.344
     Ti    36      Dzz                  0.564
     Ti    36      Dzy                  0.486
     Ti    36      Dzx                  0.483
     Ti    36      Dxx-yy               0.607
     Ti    36      Dxy                  0.618
     Ti    36      Px                   0.376
     Ti    36      Py                   0.375
     Ti    36      Pz                   0.241
     Ti    37      S                    2.001
     Ti    37      Px                   2.003
     Ti    37      Py                   2.003
     Ti    37      Pz                   2.004
     Ti    37      S                    0.304
     Ti    37      Dzz                  0.504
     Ti    37      Dzy                  0.583
     Ti    37      Dzx                  0.561
     Ti    37      Dxx-yy               0.522
     Ti    37      Dxy                  0.456
     Ti    37      Px                   0.342
     Ti    37      Py                   0.337
     Ti    37      Pz                   0.332
     Ti    38      S                    2.002
     Ti    38      Px                   2.004
     Ti    38      Py                   2.004
     Ti    38      Pz                   2.004
     Ti    38      S                    0.283
     Ti    38      Dzz                  0.553
     Ti    38      Dzy                  0.552
     Ti    38      Dzx                  0.499
     Ti    38      Dxx-yy               0.596
     Ti    38      Dxy                  0.504
     Ti    38      Px                   0.319
     Ti    38      Py                   0.305
     Ti    38      Pz                   0.345
     Ti    39      S                    2.001
     Ti    39      Px                   2.004
     Ti    39      Py                   2.004
     Ti    39      Pz                   2.004
     Ti    39      S                    0.312
     Ti    39      Dzz                  0.534
     Ti    39      Dzy                  0.603
     Ti    39      Dzx                  0.556
     Ti    39      Dxx-yy               0.493
     Ti    39      Dxy                  0.468
     Ti    39      Px                   0.305
     Ti    39      Py                   0.344
     Ti    39      Pz                   0.336
     Ti    40      S                    2.002
     Ti    40      Px                   2.004
     Ti    40      Py                   2.004
     Ti    40      Pz                   2.004
     Ti    40      S                    0.298
     Ti    40      Dzz                  0.576
     Ti    40      Dzy                  0.513
     Ti    40      Dzx                  0.511
     Ti    40      Dxx-yy               0.579
     Ti    40      Dxy                  0.530
     Ti    40      Px                   0.327
     Ti    40      Py                   0.265
     Ti    40      Pz                   0.337
     Ti    41      S                    2.002
     Ti    41      Px                   2.005
     Ti    41      Py                   2.006
     Ti    41      Pz                   2.005
     Ti    41      S                    0.295
     Ti    41      Dzz                  0.573
     Ti    41      Dzy                  0.503
     Ti    41      Dzx                  0.519
     Ti    41      Dxx-yy               0.609
     Ti    41      Dxy                  0.579
     Ti    41      Px                   0.312
     Ti    41      Py                   0.300
     Ti    41      Pz                   0.300
     Ti    42      S                    2.000
     Ti    42      Px                   2.002
     Ti    42      Py                   2.002
     Ti    42      Pz                   2.003
     Ti    42      S                    0.328
     Ti    42      Dzz                  0.472
     Ti    42      Dzy                  0.608
     Ti    42      Dzx                  0.633
     Ti    42      Dxx-yy               0.463
     Ti    42      Dxy                  0.450
     Ti    42      Px                   0.326
     Ti    42      Py                   0.367
     Ti    42      Pz                   0.310
     Ti    43      S                    2.002
     Ti    43      Px                   2.005
     Ti    43      Py                   2.005
     Ti    43      Pz                   2.004
     Ti    43      S                    0.305
     Ti    43      Dzz                  0.567
     Ti    43      Dzy                  0.504
     Ti    43      Dzx                  0.480
     Ti    43      Dxx-yy               0.573
     Ti    43      Dxy                  0.616
     Ti    43      Px                   0.334
     Ti    43      Py                   0.329
     Ti    43      Pz                   0.281
     Ti    44      S                    2.003
     Ti    44      Px                   2.005
     Ti    44      Py                   2.006
     Ti    44      Pz                   2.005
     Ti    44      S                    0.307
     Ti    44      Dzz                  0.567
     Ti    44      Dzy                  0.501
     Ti    44      Dzx                  0.486
     Ti    44      Dxx-yy               0.589
     Ti    44      Dxy                  0.598
     Ti    44      Px                   0.354
     Ti    44      Py                   0.332
     Ti    44      Pz                   0.293
     Ti    45      S                    2.000
     Ti    45      Px                   2.002
     Ti    45      Py                   2.002
     Ti    45      Pz                   2.003
     Ti    45      S                    0.331
     Ti    45      Dzz                  0.465
     Ti    45      Dzy                  0.627
     Ti    45      Dzx                  0.619
     Ti    45      Dxx-yy               0.463
     Ti    45      Dxy                  0.449
     Ti    45      Px                   0.325
     Ti    45      Py                   0.353
     Ti    45      Pz                   0.314
     Ti    46      S                    2.003
     Ti    46      Px                   2.006
     Ti    46      Py                   2.006
     Ti    46      Pz                   2.004
     Ti    46      S                    0.292
     Ti    46      Dzz                  0.612
     Ti    46      Dzy                  0.504
     Ti    46      Dzx                  0.475
     Ti    46      Dxx-yy               0.606
     Ti    46      Dxy                  0.593
     Ti    46      Px                   0.321
     Ti    46      Py                   0.296
     Ti    46      Pz                   0.294
     Ti    47      S                    2.000
     Ti    47      Px                   2.003
     Ti    47      Py                   2.003
     Ti    47      Pz                   2.004
     Ti    47      S                    0.312
     Ti    47      Dzz                  0.507
     Ti    47      Dzy                  0.577
     Ti    47      Dzx                  0.595
     Ti    47      Dxx-yy               0.475
     Ti    47      Dxy                  0.487
     Ti    47      Px                   0.322
     Ti    47      Py                   0.280
     Ti    47      Pz                   0.321
     Ti    48      S                    2.004
     Ti    48      Px                   2.007
     Ti    48      Py                   2.007
     Ti    48      Pz                   2.006
     Ti    48      S                    0.269
     Ti    48      Dzz                  0.571
     Ti    48      Dzy                  0.525
     Ti    48      Dzx                  0.500
     Ti    48      Dxx-yy               0.598
     Ti    48      Dxy                  0.589
     Ti    48      Px                   0.314
     Ti    48      Py                   0.302
     Ti    48      Pz                   0.354
     Ti    49      S                    2.003
     Ti    49      Px                   2.006
     Ti    49      Py                   2.006
     Ti    49      Pz                   2.006
     Ti    49      S                    0.265
     Ti    49      Dzz                  0.572
     Ti    49      Dzy                  0.499
     Ti    49      Dzx                  0.508
     Ti    49      Dxx-yy               0.600
     Ti    49      Dxy                  0.617
     Ti    49      Px                   0.308
     Ti    49      Py                   0.288
     Ti    49      Pz                   0.337
     Ti    50      S                    1.999
     Ti    50      Px                   2.002
     Ti    50      Py                   2.001
     Ti    50      Pz                   2.003
     Ti    50      S                    0.311
     Ti    50      Dzz                  0.495
     Ti    50      Dzy                  0.577
     Ti    50      Dzx                  0.604
     Ti    50      Dxx-yy               0.470
     Ti    50      Dxy                  0.453
     Ti    50      Px                   0.326
     Ti    50      Py                   0.358
     Ti    50      Pz                   0.335
     Ti    51      S                    2.003
     Ti    51      Px                   2.005
     Ti    51      Py                   2.007
     Ti    51      Pz                   2.005
     Ti    51      S                    0.285
     Ti    51      Dzz                  0.577
     Ti    51      Dzy                  0.515
     Ti    51      Dzx                  0.460
     Ti    51      Dxx-yy               0.576
     Ti    51      Dxy                  0.630
     Ti    51      Px                   0.315
     Ti    51      Py                   0.297
     Ti    51      Pz                   0.337
     Ti    52      S                    2.003
     Ti    52      Px                   2.007
     Ti    52      Py                   2.005
     Ti    52      Pz                   2.006
     Ti    52      S                    0.274
     Ti    52      Dzz                  0.575
     Ti    52      Dzy                  0.498
     Ti    52      Dzx                  0.507
     Ti    52      Dxx-yy               0.603
     Ti    52      Dxy                  0.607
     Ti    52      Px                   0.309
     Ti    52      Py                   0.290
     Ti    52      Pz                   0.344
     Ti    53      S                    2.000
     Ti    53      Px                   2.002
     Ti    53      Py                   2.003
     Ti    53      Pz                   2.003
     Ti    53      S                    0.315
     Ti    53      Dzz                  0.502
     Ti    53      Dzy                  0.591
     Ti    53      Dzx                  0.605
     Ti    53      Dxx-yy               0.467
     Ti    53      Dxy                  0.474
     Ti    53      Px                   0.343
     Ti    53      Py                   0.281
     Ti    53      Pz                   0.337
     Ti    54      S                    2.003
     Ti    54      Px                   2.007
     Ti    54      Py                   2.006
     Ti    54      Pz                   2.005
     Ti    54      S                    0.273
     Ti    54      Dzz                  0.577
     Ti    54      Dzy                  0.508
     Ti    54      Dzx                  0.471
     Ti    54      Dxx-yy               0.608
     Ti    54      Dxy                  0.609
     Ti    54      Px                   0.305
     Ti    54      Py                   0.318
     Ti    54      Pz                   0.348
     Ti    55      S                    2.003
     Ti    55      Px                   2.007
     Ti    55      Py                   2.006
     Ti    55      Pz                   2.005
     Ti    55      S                    0.255
     Ti    55      Dzz                  0.587
     Ti    55      Dzy                  0.497
     Ti    55      Dzx                  0.483
     Ti    55      Dxx-yy               0.598
     Ti    55      Dxy                  0.620
     Ti    55      Px                   0.301
     Ti    55      Py                   0.309
     Ti    55      Pz                   0.353
     Ti    56      S                    2.001
     Ti    56      Px                   2.004
     Ti    56      Py                   2.003
     Ti    56      Pz                   2.003
     Ti    56      S                    0.288
     Ti    56      Dzz                  0.550
     Ti    56      Dzy                  0.517
     Ti    56      Dzx                  0.514
     Ti    56      Dxx-yy               0.531
     Ti    56      Dxy                  0.578
     Ti    56      Px                   0.307
     Ti    56      Py                   0.302
     Ti    56      Pz                   0.345
     Ti    57      S                    2.004
     Ti    57      Px                   2.006
     Ti    57      Py                   2.007
     Ti    57      Pz                   2.006
     Ti    57      S                    0.290
     Ti    57      Dzz                  0.564
     Ti    57      Dzy                  0.514
     Ti    57      Dzx                  0.497
     Ti    57      Dxx-yy               0.597
     Ti    57      Dxy                  0.607
     Ti    57      Px                   0.318
     Ti    57      Py                   0.311
     Ti    57      Pz                   0.346
     Ti    58      S                    2.001
     Ti    58      Px                   2.003
     Ti    58      Py                   2.004
     Ti    58      Pz                   2.004
     Ti    58      S                    0.299
     Ti    58      Dzz                  0.516
     Ti    58      Dzy                  0.528
     Ti    58      Dzx                  0.582
     Ti    58      Dxx-yy               0.445
     Ti    58      Dxy                  0.550
     Ti    58      Px                   0.362
     Ti    58      Py                   0.319
     Ti    58      Pz                   0.339
     Ti    59      S                    2.002
     Ti    59      Px                   2.004
     Ti    59      Py                   2.004
     Ti    59      Pz                   2.004
     Ti    59      S                    0.282
     Ti    59      Dzz                  0.568
     Ti    59      Dzy                  0.497
     Ti    59      Dzx                  0.531
     Ti    59      Dxx-yy               0.540
     Ti    59      Dxy                  0.572
     Ti    59      Px                   0.300
     Ti    59      Py                   0.311
     Ti    59      Pz                   0.345
     Ti    60      S                    2.003
     Ti    60      Px                   2.006
     Ti    60      Py                   2.006
     Ti    60      Pz                   2.005
     Ti    60      S                    0.289
     Ti    60      Dzz                  0.590
     Ti    60      Dzy                  0.480
     Ti    60      Dzx                  0.496
     Ti    60      Dxx-yy               0.598
     Ti    60      Dxy                  0.602
     Ti    60      Px                   0.317
     Ti    60      Py                   0.320
     Ti    60      Pz                   0.334
     Ti    61      S                    2.001
     Ti    61      Px                   2.004
     Ti    61      Py                   2.005
     Ti    61      Pz                   2.004
     Ti    61      S                    0.301
     Ti    61      Dzz                  0.540
     Ti    61      Dzy                  0.506
     Ti    61      Dzx                  0.598
     Ti    61      Dxx-yy               0.473
     Ti    61      Dxy                  0.540
     Ti    61      Px                   0.337
     Ti    61      Py                   0.282
     Ti    61      Pz                   0.343
     Ti    62      S                    2.003
     Ti    62      Px                   2.006
     Ti    62      Py                   2.004
     Ti    62      Pz                   2.005
     Ti    62      S                    0.291
     Ti    62      Dzz                  0.599
     Ti    62      Dzy                  0.484
     Ti    62      Dzx                  0.492
     Ti    62      Dxx-yy               0.622
     Ti    62      Dxy                  0.540
     Ti    62      Px                   0.314
     Ti    62      Py                   0.333
     Ti    62      Pz                   0.328
     Ti    63      S                    2.001
     Ti    63      Px                   2.004
     Ti    63      Py                   2.004
     Ti    63      Pz                   2.004
     Ti    63      S                    0.309
     Ti    63      Dzz                  0.506
     Ti    63      Dzy                  0.589
     Ti    63      Dzx                  0.554
     Ti    63      Dxx-yy               0.506
     Ti    63      Dxy                  0.502
     Ti    63      Px                   0.294
     Ti    63      Py                   0.326
     Ti    63      Pz                   0.341
     Ti    64      S                    2.003
[...]
             Ti 7  -- Ti 17                  0.31        2.67524
             Ti 67 -- Ti 68                  0.33        2.67921
             Ti 8  -- Ti 33                  0.28        2.67988
              Al 7 -- Ti 26                  0.40        2.68041
             Ti 11 -- Ti 35                  0.28        2.68167
              Al 2 -- Ti 33                  0.35        2.68319
             Ti 51 -- Ti 60                  0.30        2.68327
              Al 6 -- Ti 41                  0.39        2.68474
             Ti 14 -- Ti 38                  0.26        2.68556
             Ti 4  -- Ti 14                  0.31        2.68568
              Al 7 -- Ti 46                  0.41        2.69100
             Ti 43 -- Ti 44                  0.33        2.69735
              Al 3 -- Ti 61                  0.31        2.69971
             Ti 17 -- Ti 40                  0.26        2.70262
             Ti 59 -- Ti 68                  0.28        2.70421
              Al 6 -- Ti 35                  0.35        2.71002
             Ti 3  -- Ti 28                  0.28        2.71205
             Ti 44 -- Ti 67                  0.32        2.71259
             Ti 38 -- Ti 44                  0.25        2.71454
              Al 4 -- V 2                    0.31        2.71457
             Ti 40 -- Ti 46                  0.26        2.71650
             Ti 28 -- Ti 29                  0.22        2.72463
             Ti 59 -- Ti 60                  0.25        2.72498
             Ti 5  -- Ti 31                  0.29        2.73239
              Al 3 -- Ti 39                  0.31        2.73375
             Ti 56 -- Ti 65                  0.27        2.73789
              Al 3 -- Ti 69                  0.29        2.74619
             Ti 29 -- V 2                    0.18        2.74736
             Ti 16 -- Ti 62                  0.30        2.75021
             Ti 59 -- V 3                    0.16        2.75073
              Al 4 -- Ti 63                  0.33        2.75513
              Al 2 -- V 1                    0.28        2.76508
             Ti 36 -- Ti 58                  0.22        2.77212
              Al 3 -- Al 4                   0.21        2.77459
             Ti 36 -- Ti 66                  0.22        2.78713
              Al 4 -- V 3                    0.30        2.79128
              Al 4 -- Ti 33                  0.28        2.79177
              Al 3 -- V 3                    0.26        2.79497
              Al 4 -- Ti 34                  0.33        2.79499
              Al 2 -- Ti 61                  0.27        2.79898
             Ti 35 -- Ti 36                  0.19        2.80438
              Al 3 -- Ti 38                  0.27        2.80583
             Ti 58 -- V 2                    0.31        2.81197
             Ti 36 -- Ti 37                  0.22        2.81812
              Al 6 -- Ti 44                  0.26        2.81843
              Al 7 -- Ti 41                  0.29        2.81844
             Ti 58 -- V 1                    0.18        2.81897
              Al 6 -- Ti 46                  0.29        2.82217
             Ti 28 -- Ti 31                  0.19        2.82867
             Ti 69 -- V 3                    0.17        2.82869
              Al 8 -- Ti 67                  0.24        2.83130
             Ti 28 -- Ti 36                  0.17        2.83162
             Ti 57 -- Ti 62                  0.10        2.83410
             Ti 20 -- Ti 23                  0.12        2.83768
              Al 4 -- Ti 56                  0.21        2.83925
             Ti 48 -- Ti 54                  0.12        2.83995
             Ti 54 -- V 2                    0.22        2.84037
             Ti 49 -- Ti 52                  0.04        2.84074
              Al 3 -- Ti 31                  0.25        2.84153
              Al 8 -- Ti 64                  0.28        2.84616
             Ti 34 -- Ti 37                  0.30        2.84808
             Ti 65 -- Ti 68                  0.10        2.84880
             Ti 36 -- Ti 59                  0.22        2.85183
              Al 3 -- Ti 40                  0.26        2.85399
             Ti 30 -- V 1                    0.21        2.85436
             Ti 48 -- Ti 58                  0.12        2.85532
             Ti 63 -- Ti 66                  0.26        2.85768
             Ti 9  -- Ti 15                  0.38        2.85809
             Ti 37 -- Ti 39                  0.29        2.85919
             Ti 1  -- Ti 6                   0.37        2.85950
             Ti 65 -- Ti 66                  0.17        2.86106
             Ti 64 -- Ti 66                  0.17        2.86159
             Ti 42 -- Ti 45                  0.36        2.86352
              Al 7 -- Ti 43                  0.23        2.86480
             Ti 38 -- Ti 40                  0.15        2.86491
             Ti 14 -- Ti 17                  0.12        2.86559
             Ti 19 -- Ti 22                  0.09        2.86663
             Ti 47 -- Ti 53                  0.29        2.86813
             Ti 29 -- V 1                    0.17        2.86993
             Ti 56 -- V 3                    0.20        2.87039
             Ti 18 -- Ti 24                  0.37        2.87116
             Ti 30 -- Ti 32                  0.30        2.87135
             Ti 2  -- Ti 7                   0.11        2.87285
             Ti 3  -- Ti 8                   0.09        2.87335
             Ti 61 -- V 2                    0.30        2.87394
             Ti 10 -- Ti 13                  0.09        2.87435
             Ti 48 -- Ti 51                  0.08        2.87453
             Ti 66 -- Ti 69                  0.29        2.87489
             Ti 27 -- Ti 30                  0.36        2.87497
             Ti 11 -- Ti 17                  0.08        2.87522
             Ti 18 -- Ti 21                  0.32        2.87586
             Ti 61 -- V 3                    0.17        2.87768
              Al 3 -- Ti 59                  0.21        2.87831
             Ti 13 -- Ti 16                  0.09        2.87886
             Ti 22 -- Ti 25                  0.09        2.87902
             Ti 4  -- Ti 7                   0.11        2.87904
             Ti 3  -- Ti 5                   0.08        2.88014
              Al 5 -- Ti 45                  0.40        2.88058
             Ti 5  -- Ti 8                   0.08        2.88086
             Ti 50 -- Ti 53                  0.35        2.88130
             Ti 42 -- Ti 44                  0.22        2.88176
             Ti 61 -- Ti 62                  0.04        2.88227
             Ti 2  -- Ti 4                   0.08        2.88252
             Ti 10 -- Ti 16                  0.07        2.88256
             Ti 35 -- Ti 38                  0.23        2.88423
             Ti 12 -- Ti 15                  0.35        2.88465
             Ti 35 -- Ti 40                  0.17        2.88523
             Ti 2  -- Ti 37                  0.18        2.88578
             Ti 47 -- Ti 50                  0.33        2.88600
              Al 1 -- Ti 1                   0.32        2.88665
             Ti 67 -- Ti 69                  0.18        2.88785
              Al 1 -- Ti 6                   0.32        2.88792
             Ti 27 -- Ti 32                  0.32        2.88846
             Ti 21 -- Ti 24                  0.34        2.88850
             Ti 28 -- Ti 33                  0.18        2.88870
             Ti 19 -- Ti 25                  0.08        2.88890
              Al 7 -- Ti 27                  0.25        2.88994
              Al 5 -- Ti 42                  0.33        2.89083
             Ti 32 -- Ti 43                  0.14        2.89088
             Ti 65 -- Ti 70                  0.13        2.89101
             Ti 9  -- Ti 12                  0.32        2.89213
             Ti 63 -- Ti 70                  0.10        2.89236
             Ti 11 -- Ti 14                  0.11        2.89401
             Ti 62 -- V 2                    0.10        2.89445
             Ti 52 -- Ti 55                  0.07        2.89528
             Ti 68 -- Ti 70                  0.10        2.89566
             Ti 23 -- Ti 26                  0.14        2.89620
              Al 4 -- Ti 40                  0.25        2.89650
              Al 7 -- Ti 47                  0.24        2.89801
             Ti 49 -- Ti 55                  0.07        2.89878
             Ti 11 -- Ti 37                  0.16        2.90066
             Ti 44 -- Ti 66                  0.17        2.90115
             Ti 4  -- Ti 39                  0.14        2.90162
             Ti 20 -- Ti 26                  0.11        2.90183
             Ti 53 -- Ti 67                  0.18        2.90281
             Ti 57 -- Ti 60                  0.13        2.90371
             Ti 36 -- Ti 38                  0.19        2.90419
             Ti 63 -- Ti 69                  0.26        2.90447
              Al 8 -- Ti 63                  0.24        2.90608
             Ti 28 -- V 2                    0.18        2.90695
              Al 4 -- Ti 36                  0.20        2.90874
             Ti 51 -- Ti 58                  0.12        2.91014
             Ti 21 -- Ti 65                  0.20        2.91091
             Ti 60 -- Ti 62                  0.10        2.91504
             Ti 18 -- Ti 62                  0.16        2.91574
              Al 3 -- Ti 33                  0.22        2.91584
             Ti 31 -- Ti 33                  0.17        2.91720
             Ti 48 -- V 2                    0.15        2.91724
             Ti 14 -- Ti 39                  0.14        2.92075
              Al 6 -- Ti 66                  0.22        2.92077
             Ti 4  -- Ti 37                  0.16        2.92101
             Ti 7  -- Ti 39                  0.16        2.92190
              Al 2 -- Ti 32                  0.26        2.92229
              Al 6 -- Ti 63                  0.22        2.92257
             Ti 44 -- Ti 50                  0.16        2.92303
             Ti 11 -- Ti 34                  0.15        2.92325
             Ti 1  -- Ti 64                  0.15        2.92347
             Ti 6  -- Ti 67                  0.13        2.92410
             Ti 51 -- Ti 61                  0.14        2.92427
             Ti 51 -- Ti 54                  0.14        2.92628
             Ti 24 -- Ti 68                  0.14        2.92679
             Ti 36 -- Ti 56                  0.19        2.92758
             Ti 34 -- Ti 39                  0.32        2.92783
             Ti 66 -- Ti 67                  0.15        2.92817
             Ti 34 -- Ti 35                  0.14        2.92865
             Ti 31 -- Ti 36                  0.17        2.92925
             Ti 27 -- Ti 29                  0.16        2.93052
              Al 2 -- V 2                    0.20        2.93165
             Ti 33 -- V 2                    0.16        2.93242
              Al 2 -- Ti 53                  0.25        2.93412
              Al 4 -- Ti 28                  0.19        2.93455
             Ti 3  -- Ti 37                  0.15        2.93567
             Ti 5  -- Ti 39                  0.13        2.93735
             Ti 43 -- Ti 53                  0.12        2.93830
             Ti 2  -- Ti 34                  0.13        2.93861
              Al 8 -- Ti 69                  0.23        2.93864
             Ti 68 -- Ti 69                  0.10        2.93873
             Ti 46 -- Ti 53                  0.16        2.94034
             Ti 29 -- Ti 47                  0.15        2.94049
             Ti 5  -- Ti 37                  0.13        2.94068
             Ti 33 -- Ti 61                  0.12        2.94330
             Ti 18 -- Ti 70                  0.12        2.94398
             Ti 24 -- Ti 70                  0.13        2.94459
             Ti 57 -- Ti 58                  0.15        2.94509
             Ti 9  -- Ti 57                  0.12        2.94698
              Al 6 -- Ti 47                  0.24        2.94710
             Ti 21 -- Ti 68                  0.17        2.94839
             Ti 9  -- Ti 54                  0.16        2.94854
             Ti 7  -- Ti 34                  0.14        2.95013
             Ti 60 -- Ti 61                  0.15        2.95093
             Ti 8  -- Ti 39                  0.14        2.95179
             Ti 66 -- Ti 68                  0.19        2.95223
             Ti 9  -- Ti 17                  0.15        2.95245
             Ti 45 -- Ti 46                  0.17        2.95302
              Al 1 -- Ti 64                  0.18        2.95449
              Al 8 -- Ti 1                   0.20        2.95490
             Ti 16 -- Ti 18                  0.15        2.95623
              Al 3 -- Ti 36                  0.17        2.95632
             Ti 17 -- Ti 34                  0.15        2.95639
             Ti 18 -- Ti 20                  0.15        2.95692
             Ti 64 -- Ti 67                  0.11        2.95728
             Ti 35 -- Ti 63                  0.15        2.95762
             Ti 4  -- Ti 12                  0.15        2.95789
             Ti 12 -- Ti 52                  0.12        2.95816
             Ti 41 -- Ti 43                  0.09        2.95967
             Ti 3  -- Ti 30                  0.17        2.96016
             Ti 58 -- Ti 61                  0.26        2.96042
             Ti 56 -- V 2                    0.18        2.96042
              Al 8 -- Ti 53                  0.19        2.96141
              Al 8 -- Ti 47                  0.20        2.96142
              Al 5 -- Ti 46                  0.22        2.96161
             Ti 41 -- Ti 42                  0.15        2.96168
             Ti 3  -- Ti 34                  0.12        2.96180
             Ti 6  -- Ti 25                  0.12        2.96196
             Ti 37 -- Ti 38                  0.11        2.96228
             Ti 24 -- Ti 60                  0.14        2.96357
              Al 5 -- Ti 17                  0.18        2.96522
             Ti 9  -- Ti 10                  0.13        2.96526
             Ti 17 -- Ti 39                  0.11        2.96537
             Ti 63 -- Ti 64                  0.13        2.96567
             Ti 12 -- Ti 57                  0.16        2.96630
              Al 5 -- Al 6                   0.21        2.96702
             Ti 46 -- Ti 47                  0.14        2.96735
             Ti 24 -- Ti 62                  0.14        2.96740
              Al 8 -- Ti 6                   0.20        2.96741
             Ti 15 -- Ti 54                  0.14        2.96751
             Ti 15 -- Ti 16                  0.14        2.96824
             Ti 56 -- Ti 63                  0.15        2.96832
             Ti 69 -- Ti 70                  0.07        2.96984
             Ti 28 -- Ti 58                  0.09        2.96985
             Ti 15 -- Ti 60                  0.15        2.96988
             Ti 46 -- Ti 69                  0.14        2.97087
             Ti 8  -- Ti 27                  0.12        2.97100
             Ti 46 -- Ti 63                  0.16        2.97132
             Ti 28 -- Ti 34                  0.14        2.97138
             Ti 59 -- Ti 61                  0.13        2.97192
             Ti 8  -- Ti 34                  0.12        2.97384
             Ti 14 -- Ti 37                  0.14        2.97440
             Ti 31 -- Ti 37                  0.14        2.97444
             Ti 47 -- Ti 64                  0.11        2.97524
             Ti 9  -- Ti 16                  0.14        2.97526
             Ti 39 -- Ti 40                  0.14        2.97571
             Ti 21 -- Ti 57                  0.16        2.97687
             Ti 5  -- Ti 32                  0.16        2.97692
             Ti 30 -- Ti 41                  0.12        2.97824
             Ti 26 -- Ti 27                  0.17        2.97917
             Ti 6  -- Ti 7                   0.11        2.97947
             Ti 40 -- Ti 69                  0.14        2.98098
             Ti 44 -- Ti 45                  0.15        2.98148
             Ti 58 -- Ti 59                  0.17        2.98175
             Ti 1  -- Ti 7                   0.11        2.98178
             Ti 10 -- Ti 42                  0.11        2.98187
             Ti 14 -- Ti 45                  0.15        2.98376
             Ti 52 -- Ti 53                  0.13        2.98388
             Ti 18 -- Ti 56                  0.15        2.98434
             Ti 59 -- Ti 66                  0.15        2.98459
             Ti 63 -- Ti 65                  0.08        2.98460
             Ti 31 -- Ti 58                  0.09        2.98513
             Ti 8  -- Ti 32                  0.12        2.98520
             Ti 22 -- Ti 32                  0.13        2.98544
              Al 6 -- Ti 50                  0.16        2.98546
             Ti 1  -- Ti 25                  0.14        2.98561
              Al 5 -- Ti 11                  0.18        2.98721
              Al 7 -- Ti 53                  0.16        2.98728
             Ti 38 -- Ti 39                  0.13        2.98744
             Ti 43 -- Ti 50                  0.11        2.98749
             Ti 12 -- Ti 13                  0.12        2.98754
              Al 5 -- Ti 10                  0.15        2.98755
             Ti 5  -- Ti 30                  0.17        2.98775
             Ti 14 -- Ti 42                  0.17        2.98785
             Ti 12 -- Ti 14                  0.12        2.98840
             Ti 11 -- Ti 42                  0.15        2.98856
             Ti 12 -- Ti 48                  0.12        2.98867
              Al 1 -- Ti 5                   0.17        2.98887
             Ti 51 -- Ti 53                  0.13        2.98946
              Al 1 -- Ti 4                   0.16        2.98976
             Ti 15 -- Ti 55                  0.16        2.98992
             Ti 44 -- Ti 69                  0.11        2.99033
              Al 1 -- Ti 2                   0.15        2.99091
              Al 1 -- Ti 67                  0.16        2.99172
             Ti 47 -- Ti 55                  0.10        2.99180
             Ti 15 -- Ti 17                  0.11        2.99305
             Ti 29 -- Ti 58                  0.07        2.99378
             Ti 43 -- Ti 45                  0.20        2.99417
             Ti 2  -- Ti 12                  0.14        2.99419
             Ti 1  -- Ti 19                  0.13        2.99426
             Ti 16 -- Ti 24                  0.15        2.99431
             Ti 44 -- Ti 46                  0.12        2.99448
             Ti 2  -- Ti 9                   0.11        2.99448
             Ti 9  -- Ti 11                  0.15        2.99503
             Ti 27 -- Ti 41                  0.17        2.99567
              Al 1 -- Ti 22                  0.16        2.99604
             Ti 31 -- Ti 61                  0.09        2.99633
             Ti 21 -- Ti 60                  0.16        2.99674
              Al 1 -- Ti 65                  0.17        2.99697
             Ti 41 -- Ti 50                  0.14        2.99795
             Ti 6  -- Ti 68                  0.12        2.99801
             Ti 63 -- V 3                    0.17        2.99874
             Ti 19 -- Ti 27                  0.12        2.99948
======================================================================

 
 A BibTeX formatted list of references used in this run has been written to 
 sqs_hex_sc3x3x3_Ti70Al8V3_frame0_04.bib
 
Initialisation time =     23.55 s
Calculation time    =   6481.46 s
Finalisation time   =      0.51 s
Total time          =   6505.52 s
Peak Memory Use     = 2632372 kB
 
Overall parallel efficiency rating: Mediocre (57%)
 
Data was distributed by:-
G-vector (16-way); efficiency rating: Mediocre (59%)
k-point (15-way); efficiency rating: Excellent (94%)
