 +-------------------------------------------------+
 |                                                 |
 |      CCC   AA    SSS  TTTTT  EEEEE  PPPP        |
 |     C     A  A  S       T    E      P   P       |
 |     C     AAAA   SS     T    EEE    PPPP        |
 |     C     A  A     S    T    E      P           |
 |      CCC  A  A  SSS     T    EEEEE  P           |
 |                                                 |
 +-------------------------------------------------+
 |                                                 |
 | Welcome to Academic Release CASTEP version 24.1 |
 | Ab Initio Total Energy Program                  |
 |                                                 |
 | Authors:                                        |
 | M. Segall, M. Probert, C. Pickard, P. Hasnip,   |
 | S. Clark, K. Refson, J. R. Yates,               |
 | A. Bartok-Partay, M. Payne                      |
 |                                                 |
 | Contributors:                                   |
 | P. Lindan, P. Haynes, J. White, V. Milman,      |
 | N. Govind, M. Gibson, P. Tulip, V. Cocula,      |
 | B. Montanari, D. Quigley, M. Glover,            |
 | L. Bernasconi, A. Perlov, M. Plummer,           |
 | E. McNellis, J. Meyer, J. Gale, D. Jochym       |
 | J. Aarons, B. Walker, R. Gillen, D. Jones       |
 | T. Green, I. J. Bush, C. J. Armstrong,          |
 | E. J. Higgins, E. L. Brown, M. S. McFly,        |
 | J. Wilkins, B-C. Shih, P. J. P. Byrne,          |
 | R. J. Maurer, J. C. Womack, J. Dziedzic,        |
 | L. LeBlanc, T. K. Stenczel, J. Kermode,         |
 | S. Sturniolo, B. Shi, B. Durham, M. Evans,      |
 | M. J. Smith, A. Tamerus, Z. Hawkhead,           |
 | V. Ravindran, T. Hollins, S. A. Joyce,          |
 | R. T. Strong, A. M. Reilly                      |
 |                                                 |
 | Copyright (c) 2000 - 2023                       |
 |                                                 |
 |     Distributed under license from Cambridge    |
 |     Enterprise for academic use only.           |
 |                                                 |
 | Please cite                                     |
 |                                                 |
 |     "First principles methods using CASTEP"     |
 |                                                 |
 |         Zeitschrift fuer Kristallographie       |
 |           220(5-6) pp. 567-570 (2005)           |
 |                                                 |
 | S. J. Clark, M. D. Segall, C. J. Pickard,       |
 | P. J. Hasnip, M. J. Probert, K. Refson,         |
 | M. C. Payne                                     |
 |                                                 |
 |       in all publications arising from          |
 |              your use of CASTEP                 |
 |                                                 |
 +-------------------------------------------------+
 |                                                 |
 |              http://www.castep.org              |
 |                                                 |
 +-------------------------------------------------+



 Compiled for linux_x86_64_gfortran10 on Tue, 02 May 2023 15:31:46 +0100
 from code version db08e394c+  default  Mon May 1 16:40:39 2023 +0100
 Compiler: GNU Fortran 10.2.0; Optimisation: fast
 Comms   : Open MPI v4.0.5
 MATHLIBS: openblas (LAPACK version 3.9.0)
 FFT Lib : fftw3 version fftw-3.3.8-sse2-avx-avx2-avx2_128
 Fundamental constants values: CODATA 2018

 Run started: Wed, 07 Feb 2024 19:24:22 +0000
 Info: number of up-spin electrons is not equal to the
       number of down-spins but spin_polarized=false
     - consider setting spin_polarized=true.

 Atomic calculation performed for Al: 1s2 2s2 2p6 3s2 3p1

 Converged in 54 iterations to an ae energy of -6603.783 eV

   ============================================================                
   | Pseudopotential Report - Date of generation  7-02-2024   |                
   ------------------------------------------------------------                
   | Element: Al Ionic charge:  3.00 Level of theory: PBE     |                
   | Atomic Solver: Koelling-Harmon                           |                
   |                                                          |                
   |               Reference Electronic Structure             |                
   |         Orbital         Occupation         Energy        |                
   |            3s              2.000           -0.285        |                
   |            3p              1.000           -0.100        |                
   |                                                          |                
   |                 Pseudopotential Definition               |                
   |        Beta     l      e      Rc     scheme   norm       |                
   |          1      0   -0.285   2.192     qc      0         |                
   |          2      0    0.250   2.192     qc      0         |                
   |          3      1   -0.100   2.192     qc      0         |                
   |          4      1    0.250   2.192     qc      0         |                
   |          5      2    0.000   2.000     qc      0         |                
   |          6      2    0.250   2.000     qc      0         |                
   |         loc     3    0.000   2.192     pn      0         |                
   |                                                          |                
   | Augmentation charge Rinner = 1.398                       |                
   | Partial core correction Rc = 1.398                       |                
   ------------------------------------------------------------                
   | "3|2.2|2.2|1.4|4|5|5|30:31:32U2U2"                       |                
   ------------------------------------------------------------                
   |      Author: Chris J. Pickard, Cambridge University      |                
   ============================================================                

 Atomic calculation performed for Ti: 1s2 2s2 2p6 3s2 3p6 3d2 4s2

 Converged in 79 iterations to an ae energy of -23226.658 eV

   ============================================================                
   | Pseudopotential Report - Date of generation  7-02-2024   |                
   ------------------------------------------------------------                
   | Element: Ti Ionic charge: 12.00 Level of theory: PBE     |                
   | Atomic Solver: Koelling-Harmon                           |                
   |                                                          |                
   |               Reference Electronic Structure             |                
   |         Orbital         Occupation         Energy        |                
   |            3s              2.000           -2.302        |                
   |            3p              6.000           -1.428        |                
   |            4s              2.000           -0.164        |                
   |            3d              2.000           -0.157        |                
   |                                                          |                
   |                 Pseudopotential Definition               |                
   |        Beta     l      e      Rc     scheme   norm       |                
   |          1      0   -2.302   1.793     qc      0         |                
   |          2      0   -0.164   1.793     qc      0         |                
   |          3      0    0.250   1.793     qc      0         |                
   |          4      1   -1.428   1.793     qc      0         |                
   |          5      1    0.250   1.793     qc      0         |                
   |          6      2   -0.157   1.793     qc      0         |                
   |          7      2    0.250   1.793     qc      0         |                
   |         loc     3    0.000   1.793     pn      0         |                
   |                                                          |                
   | Augmentation charge Rinner = 1.263                       |                
   | Partial core correction Rc = 1.263                       |                
   ------------------------------------------------------------                
   | "3|1.8|9|10|11|30U:40:31:32(qc=5.5)"                     |                
   ------------------------------------------------------------                
   |      Author: Chris J. Pickard, Cambridge University      |                
   ============================================================                

 Atomic calculation performed for V: 1s2 2s2 2p6 3s2 3p6 3d3 4s2

 Converged in 81 iterations to an ae energy of -25823.733 eV

   ============================================================                
   | Pseudopotential Report - Date of generation  7-02-2024   |                
   ------------------------------------------------------------                
   | Element: V Ionic charge: 13.00 Level of theory: PBE      |                
   | Atomic Solver: Koelling-Harmon                           |                
   |                                                          |                
   |               Reference Electronic Structure             |                
   |         Orbital         Occupation         Energy        |                
   |            3s              2.000           -2.581        |                
   |            3p              6.000           -1.618        |                
   |            3d              3.000           -0.190        |                
   |            4s              2.000           -0.173        |                
   |                                                          |                
   |                 Pseudopotential Definition               |                
   |        Beta     l      e      Rc     scheme   norm       |                
   |          1      0   -2.581   1.803     qc      0         |                
   |          2      0   -0.173   1.803     qc      0         |                
   |          3      0    0.250   1.803     qc      0         |                
   |          4      1   -1.618   1.803     qc      0         |                
   |          5      1    0.250   1.803     qc      0         |                
   |          6      2   -0.190   1.803     qc      0         |                
   |          7      2    0.250   1.803     qc      0         |                
   |         loc     3    0.000   1.803     pn      0         |                
   |                                                          |                
   | Augmentation charge Rinner = 0.600                       |                
   | Partial core correction Rc = 0.600                       |                
   ------------------------------------------------------------                
   | "3|1.8|1.8|0.6|12|14|16|30U:40:31:32(qc=7)"              |                
   ------------------------------------------------------------                
   |      Author: Chris J. Pickard, Cambridge University      |                
   ============================================================                

 Pseudo atomic calculation performed for Al 3s2 3p1

 Converged in 15 iterations to a total energy of -107.1308 eV

 Pseudo atomic calculation performed for Ti 3s2 3p6 3d2 4s2

 Converged in 34 iterations to a total energy of -1587.0236 eV

 Pseudo atomic calculation performed for V 3s2 3p6 3d3 4s2

 Converged in 35 iterations to a total energy of -2065.7874 eV
 Calculation parallelised over 240 processes.
 Data is distributed by G-vector(16-way) and k-point(15-way)

 ************************************ Title ************************************
 

 ***************************** General Parameters ******************************
  
 output verbosity                               : normal  (1)
 write checkpoint data to                       : sqs_hex_sc3x3x3_Ti70Al8V3_frame0_15.check
 type of calculation                            : single point energy
 stress calculation                             : on
 density difference calculation                 : off
 electron localisation func (ELF) calculation   : off
 Hirshfeld analysis                             : off
 polarisation (Berry phase) analysis            : off
 molecular orbital projected DOS                : off
 deltaSCF calculation                           : off
 unlimited duration calculation
 timing information                             : on
 memory usage estimate                          : on
 write extra output files                       : on
 write final potential to formatted file        : off
 write final density to formatted file          : off
 write BibTeX reference list                    : on
 write OTFG pseudopotential files               : on
 write electrostatic potential file             : on
 write bands file                               : on
 checkpoint writing                             : off
  
 output         length unit                     : A
 output           mass unit                     : amu
 output           time unit                     : ps
 output         charge unit                     : e
 output           spin unit                     : hbar/2
 output         energy unit                     : eV
 output          force unit                     : eV/A
 output       velocity unit                     : A/ps
 output       pressure unit                     : GPa
 output     inv_length unit                     : 1/A
 output      frequency unit                     : cm-1
 output force constant unit                     : eV/A**2
 output         volume unit                     : A**3
 output   IR intensity unit                     : (D/A)**2/amu
 output         dipole unit                     : D
 output         efield unit                     : eV/A/e
 output        entropy unit                     : J/mol/K
 output    efield chi2 unit                     : pm/V
  
 wavefunctions paging                           : none
 random number generator seed                   :  192422505
 data distribution                              : k-point only
 optimization strategy                          : maximize speed(+++)

 *********************** Exchange-Correlation Parameters ***********************
  
 using functional                               : Perdew Burke Ernzerhof
 relativistic treatment                         : Koelling-Harmon
 DFT+D: Semi-empirical dispersion correction    : off

 ************************* Pseudopotential Parameters **************************
  
 pseudopotential representation                 : reciprocal space
 <beta|phi> representation                      : reciprocal space
 spin-orbit coupling                            : off

 **************************** Basis Set Parameters *****************************
  
 plane wave basis set cut-off                   :   800.0000   eV
 size of standard grid                          :     2.0000
 size of   fine   gmax                          :    28.9810   1/A
 largest prime factor in FFT                    :          5
 finite basis set correction                    : automatic
 number of sample energies                      :          3
           sample  spacing                      :     5.0000   eV

 **************************** Electronic Parameters ****************************
  
 number of  electrons                           :  903.0    
 net charge of system                           :  0.000    
 treating system as non-spin-polarized
 number of bands                                :        487

 ********************* Electronic Minimization Parameters **********************
  
 Method: Treating system as metallic with density mixing treatment of electrons,
         and number of  SD  steps               :          1
         and number of  CG  steps               :          4
  
 total energy / atom convergence tol.           : 0.1000E-05   eV
 eigen-energy convergence tolerance             : 0.1663E-06   eV
 max force / atom convergence tol.              : ignored
 convergence tolerance window                   :          3   cycles
 max. number of SCF cycles                      :         30
 number of fixed-spin iterations                :         10
 smearing scheme                                : Gaussian
 smearing width                                 : 0.5000E-01   eV
 Fermi energy convergence tolerance             : 0.2721E-13   eV
 periodic dipole correction                     : NONE

 ************************** Density Mixing Parameters **************************
  
 density-mixing scheme                          : Pulay
 max. length of mixing history                  :         20
 charge density mixing amplitude                : 0.8000    
 cut-off energy for mixing                      :  800.0       eV
 charge density mixing g-vector                 :  1.500       1/A

 *********************** Population Analysis Parameters ************************
  
 Population analysis with cutoff                :  3.000       A
 Population analysis output                     : summary and pdos components

 ******************************* Developer Code ********************************
  
 PARALLEL: kpoint=15 : ENDPARALLEL
 no_improve_wvfn

 *******************************************************************************
  

                           -------------------------------
                                      Unit Cell
                           -------------------------------
        Real Lattice(A)                      Reciprocal Lattice(1/A)
     6.8351780   -11.8388770     0.1184470        0.459621179  -0.265389465  -0.002705813
     6.8351780    11.8388760    -0.1184080        0.459621203   0.265389491   0.002708472
    -0.0000240    -0.0846180     8.2953620       -0.000002161   0.007577587   0.757510824

                       Lattice parameters(A)       Cell Angles
                    a =     13.670870          alpha =   91.002473
                    b =     13.670869          beta  =   88.997530
                    c =      8.295794          gamma =  120.002486

                       Current cell volume =          1342.398135       A**3
                                   density =             2.770688   AMU/A**3
                                           =             4.600836     g/cm^3

                           -------------------------------
                                     Cell Contents
                           -------------------------------
                         Total number of ions in cell =   81
                      Total number of species in cell =    3
                        Max number of any one species =   70

            xxxxxxxxxxxxxxxxxxxxxxxxxxxxxxxxxxxxxxxxxxxxxxxxxxxxxxxxxxxx
            x  Element    Atom        Fractional coordinates of atoms  x
            x            Number           u          v          w      x
            x----------------------------------------------------------x
            x  Al           1        -0.000247  -0.001326   0.330733   x 
            x  Al           2         0.561171   0.117172   0.794242   x 
            x  Al           3         0.552346   0.444073   0.652557   x 
            x  Al           4         0.560953   0.442024   0.973541   x 
            x  Al           5         0.336101   0.664673  -0.004848   x 
            x  Al           6         0.557634   0.777502   0.155799   x 
            x  Al           7         0.450688   0.900541   0.839547   x 
            x  Al           8         0.779252   0.889231   0.832163   x 
            x  Ti           1        -0.001779  -0.002587  -0.003597   x 
            x  Ti           2         0.108549   0.219909   0.163498   x 
            x  Ti           3         0.222498   0.110493   0.162162   x 
            x  Ti           4         0.106828   0.220019   0.497345   x 
            x  Ti           5         0.221687   0.110436   0.495743   x 
            x  Ti           6        -0.001662  -0.002396   0.665211   x 
            x  Ti           7         0.108640   0.218419   0.830768   x 
            x  Ti           8         0.224869   0.111682   0.829381   x 
            x  Ti           9         0.003632   0.336991  -0.002433   x 
            x  Ti          10         0.115427   0.556488   0.162964   x 
            x  Ti          11         0.225239   0.444777   0.164822   x 
            x  Ti          12         0.002551   0.334690   0.332524   x 
            x  Ti          13         0.112660   0.557161   0.495839   x 
            x  Ti          14         0.223460   0.446833   0.499970   x 
            x  Ti          15        -0.000455   0.335350   0.666586   x 
            x  Ti          16         0.109243   0.556232   0.829239   x 
            x  Ti          17         0.221769   0.444388   0.831850   x 
            x  Ti          18         0.000365   0.665542  -0.004249   x 
            x  Ti          19         0.112536   0.889715   0.162442   x 
            x  Ti          20         0.217888   0.775277   0.164047   x 
            x  Ti          21        -0.005464   0.664090   0.328735   x 
            x  Ti          22         0.113142   0.888943   0.494455   x 
            x  Ti          23         0.221125   0.776339   0.492681   x 
            x  Ti          24        -0.004545   0.664505   0.663284   x 
            x  Ti          25         0.109696   0.888687   0.827867   x 
            x  Ti          26         0.224622   0.779543   0.828082   x 
            x  Ti          27         0.333992   0.000309  -0.006320   x 
            x  Ti          28         0.451283   0.234852   0.159903   x 
            x  Ti          29         0.556528   0.110575   0.142310   x 
            x  Ti          30         0.336418   0.005066   0.326601   x 
            x  Ti          31         0.452068   0.236456   0.487518   x 
            x  Ti          32         0.334858   0.002202   0.659143   x 
            x  Ti          33         0.451035   0.232520   0.825347   x 
            x  Ti          34         0.325672   0.330257  -0.001417   x 
            x  Ti          35         0.451406   0.548786   0.155394   x 
            x  Ti          36         0.558241   0.447419   0.310247   x 
            x  Ti          37         0.320581   0.326511   0.328374   x 
            x  Ti          38         0.449629   0.546337   0.489433   x 
            x  Ti          39         0.321492   0.327665   0.659526   x 
            x  Ti          40         0.449650   0.548696   0.821232   x 
            x  Ti          41         0.439522   0.885989   0.165315   x 
            x  Ti          42         0.335897   0.666633   0.329957   x 
            x  Ti          43         0.446670   0.896220   0.507807   x 
            x  Ti          44         0.552530   0.775180   0.482160   x 
            x  Ti          45         0.337370   0.669584   0.661591   x 
            x  Ti          46         0.554897   0.777830   0.828963   x 
            x  Ti          47         0.667139  -0.002828  -0.004772   x 
            x  Ti          48         0.780331   0.221598   0.168313   x 
            x  Ti          49         0.888455   0.112281   0.165778   x 
            x  Ti          50         0.662668  -0.004470   0.329432   x 
            x  Ti          51         0.770173   0.217601   0.500950   x 
            x  Ti          52         0.886936   0.114703   0.494753   x 
            x  Ti          53         0.667112  -0.005315   0.663059   x 
            x  Ti          54         0.782897   0.225112   0.839423   x 
            x  Ti          55         0.889225   0.112704   0.830038   x 
            x  Ti          56         0.769794   0.544721   0.135186   x 
            x  Ti          57         0.892755   0.443330   0.164231   x 
            x  Ti          58         0.671932   0.327119   0.321028   x 
            x  Ti          59         0.762578   0.547571   0.485135   x 
            x  Ti          60         0.888702   0.444169   0.500467   x 
            x  Ti          61         0.669707   0.333575   0.663686   x 
            x  Ti          62         0.877221   0.448702   0.837333   x 
            x  Ti          63         0.671184   0.674149  -0.005626   x 
            x  Ti          64         0.782764   0.892879   0.161762   x 
            x  Ti          65         0.888461   0.774609   0.169204   x 
            x  Ti          66         0.675867   0.682590   0.325152   x 
            x  Ti          67         0.781058   0.892616   0.504270   x 
            x  Ti          68         0.889891   0.775228   0.499151   x 
            x  Ti          69         0.670677   0.675987   0.657990   x 
            x  Ti          70         0.885427   0.769594   0.834433   x 
            x  V            1         0.552039   0.117615   0.474329   x 
            x  V            2         0.663753   0.316479  -0.004301   x 
            x  V            3         0.761099   0.553177   0.803565   x 
            xxxxxxxxxxxxxxxxxxxxxxxxxxxxxxxxxxxxxxxxxxxxxxxxxxxxxxxxxxxx


                         No user defined ionic velocities

                           -------------------------------
                                   Details of Species
                           -------------------------------

                               Mass of species in AMU
                                    Al   26.9815400
                                    Ti   47.8670000
                                    V   50.9415000

                          Electric Quadrupole Moment (Barn)
                                    Al    0.1466000 Isotope 27
                                    Ti    0.3020000 Isotope 47
                                    V   -0.0520000 Isotope 51

                          Files used for pseudopotentials:
                                    Al 3|2.2|2.2|1.4|4|5|5|30:31:32U2U2
                                    Ti 3|1.8|9|10|11|30U:40:31:32(qc=5.5)
                                    V 3|1.8|1.8|0.6|12|14|16|30U:40:31:32(qc=7)

                           -------------------------------
                              k-Points For BZ Sampling
                           -------------------------------
                       MP grid size for SCF calculation is  5  5  7
                            with an offset of   0.000  0.000  0.000
                       Number of kpoints used =            88

                           -------------------------------
                               Symmetry and Constraints
                           -------------------------------

                      Maximum deviation from symmetry =  0.00000         ANG

                      Number of symmetry operations   =           1
                      Number of ionic constraints     =           3
                      Point group of crystal =     1: C1, 1, 1
                      Space group of crystal =     1: P1, P 1

             Set iprint > 1 for details on symmetry rotations/translations

                         Centre of mass is constrained
             Set iprint > 1 for details of linear ionic constraints

                         Number of cell constraints= 0
                         Cell constraints are:  1 2 3 4 5 6

                         External pressure/stress (GPa)
                          0.00000   0.00000   0.00000
                                    0.00000   0.00000
                                              0.00000
 
+---------------- MEMORY AND SCRATCH DISK ESTIMATES PER PROCESS --------------+
|                                                     Memory          Disk    |
| Baseline code, static data and system overhead      591.0 MB         0.0 MB |
| BLAS internal memory storage                          0.0 MB         0.0 MB |
| Model and support data                              955.0 MB         0.0 MB |
| Electronic energy minimisation requirements         499.2 MB         0.0 MB |
| Force calculation requirements                       15.9 MB         0.0 MB |
| Stress calculation requirements                      17.2 MB         0.0 MB |
|                                               ----------------------------- |
| Approx. total storage required per process         2045.2 MB         0.0 MB |
|                                                                             |
| Requirements will fluctuate during execution and may exceed these estimates |
+-----------------------------------------------------------------------------+
Calculating finite basis set correction with  3 cut-off energies.
Calculating total energy with cut-off of  790.000 eV.
------------------------------------------------------------------------ <-- SCF
SCF loop      Energy           Fermi           Energy gain       Timer   <-- SCF
                               energy          per atom          (sec)   <-- SCF
------------------------------------------------------------------------ <-- SCF
Initial  -1.06856713E+005  0.00000000E+000                        35.47  <-- SCF
      1  -1.15650334E+005  1.20925998E+001   1.08563234E+002     263.84  <-- SCF
      2  -1.18525369E+005  9.40202269E+000   3.54942515E+001     455.14  <-- SCF
      3  -1.18686231E+005  9.18823455E+000   1.98595735E+000     647.91  <-- SCF
      4  -1.18706165E+005  8.39249272E+000   2.46095139E-001     874.49  <-- SCF
      5  -1.18693558E+005  8.60569475E+000  -1.55638294E-001    1108.69  <-- SCF
      6  -1.18686985E+005  8.75490515E+000  -8.11549184E-002    1329.54  <-- SCF
      7  -1.18682512E+005  8.76768831E+000  -5.52149878E-002    1563.36  <-- SCF
      8  -1.18683751E+005  8.71832329E+000   1.52903611E-002    1788.28  <-- SCF
      9  -1.18682417E+005  8.71697772E+000  -1.64717823E-002    1999.05  <-- SCF
     10  -1.18682246E+005  8.70158306E+000  -2.10730975E-003    2218.78  <-- SCF
     11  -1.18682325E+005  8.69636652E+000   9.76262469E-004    2437.61  <-- SCF
     12  -1.18682235E+005  8.69550111E+000  -1.11218815E-003    2646.26  <-- SCF
     13  -1.18682223E+005  8.69572808E+000  -1.44626450E-004    2861.76  <-- SCF
     14  -1.18682224E+005  8.69629196E+000   7.51630367E-006    3076.52  <-- SCF
     15  -1.18682222E+005  8.69628972E+000  -2.72323346E-005    3256.30  <-- SCF
     16  -1.18682222E+005  8.69632922E+000   3.98143258E-006    3440.16  <-- SCF
     17  -1.18682222E+005  8.69640307E+000  -3.58918420E-006    3600.66  <-- SCF
     18  -1.18682222E+005  8.69638873E+000   8.26359196E-009    3727.70  <-- SCF
     19  -1.18682222E+005  8.69638396E+000  -6.09903562E-008    3853.91  <-- SCF
------------------------------------------------------------------------ <-- SCF
 
Final energy, E             =  -118682.1136467     eV
Final free energy (E-TS)    =  -118682.2217306     eV
(energies not corrected for finite basis set)
 
NB est. 0K energy (E-0.5TS)      =  -118682.1676887     eV
 
Calculating total energy with cut-off of  795.000 eV.
------------------------------------------------------------------------ <-- SCF
SCF loop      Energy           Fermi           Energy gain       Timer   <-- SCF
                               energy          per atom          (sec)   <-- SCF
------------------------------------------------------------------------ <-- SCF
Initial  -1.18682114E+005  0.00000000E+000                      3889.95  <-- SCF
      1  -1.18682224E+005  8.69647811E+000   1.36643977E-003    4057.56  <-- SCF
      2  -1.18682225E+005  8.69647627E+000   3.67441170E-006    4232.18  <-- SCF
      3  -1.18682264E+005  8.69503616E+000   4.92416176E-004    4446.02  <-- SCF
      4  -1.18682224E+005  8.69691551E+000  -5.04186632E-004    4653.46  <-- SCF
      5  -1.18682223E+005  8.69645612E+000  -7.17463014E-006    4848.01  <-- SCF
      6  -1.18682223E+005  8.69635312E+000   2.34110866E-006    5013.64  <-- SCF
      7  -1.18682223E+005  8.69641629E+000  -3.60466278E-007    5143.32  <-- SCF
      8  -1.18682223E+005  8.69635740E+000  -1.31394962E-007    5268.11  <-- SCF
------------------------------------------------------------------------ <-- SCF
 
Final energy, E             =  -118682.1151210     eV
Final free energy (E-TS)    =  -118682.2231932     eV
(energies not corrected for finite basis set)
 
NB est. 0K energy (E-0.5TS)      =  -118682.1691571     eV
 
Calculating total energy with cut-off of  800.000 eV.
------------------------------------------------------------------------ <-- SCF
SCF loop      Energy           Fermi           Energy gain       Timer   <-- SCF
                               energy          per atom          (sec)   <-- SCF
------------------------------------------------------------------------ <-- SCF
Initial  -1.18682115E+005  0.00000000E+000                      5304.01  <-- SCF
      1  -1.18682231E+005  8.69630222E+000   1.43685402E-003    5499.35  <-- SCF
      2  -1.18682232E+005  8.69629978E+000   2.94591890E-006    5670.90  <-- SCF
      3  -1.18682393E+005  8.69558252E+000   1.99900248E-003    5889.05  <-- SCF
      4  -1.18682222E+005  8.69760348E+000  -2.11836132E-003    6099.96  <-- SCF
      5  -1.18682224E+005  8.69635928E+000   3.14928777E-005    6297.27  <-- SCF
      6  -1.18682225E+005  8.69648678E+000   6.33222070E-006    6489.02  <-- SCF
      7  -1.18682225E+005  8.69632246E+000  -4.12599503E-006    6649.30  <-- SCF
      8  -1.18682225E+005  8.69634070E+000  -1.61116211E-007    6779.11  <-- SCF
      9  -1.18682225E+005  8.69634689E+000  -9.24846449E-008    6905.87  <-- SCF
------------------------------------------------------------------------ <-- SCF
 
Final energy, E             =  -118682.1165087     eV
Final free energy (E-TS)    =  -118682.2245990     eV
(energies not corrected for finite basis set)
 
NB est. 0K energy (E-0.5TS)      =  -118682.1705538     eV
 
 For future reference: finite basis dEtot/dlog(Ecut) =      -0.228288eV
 Total energy corrected for finite basis set = -118682.224599 eV

 ************************** Forces **************************
 *                                                          *
 *               Cartesian components (eV/A)                *
 * -------------------------------------------------------- *
 *                         x            y            z      *
 *                                                          *
 * Al              1      0.02157      0.03658      0.02265 *
 * Al              2     -0.19373     -0.07462      0.10125 *
 * Al              3      0.10299     -0.02285     -0.03277 *
 * Al              4      0.05685      0.02874      0.00297 *
 * Al              5     -0.05371      0.01451     -0.03982 *
 * Al              6     -0.07462      0.06834     -0.02949 *
 * Al              7     -0.14134     -0.16508      0.12350 *
 * Al              8      0.02921      0.02732      0.04203 *
 * Ti              1      0.03517     -0.07961     -0.01190 *
 * Ti              2     -0.11674      0.05381      0.02126 *
 * Ti              3      0.07467     -0.05260     -0.01581 *
 * Ti              4     -0.07598      0.04168     -0.02598 *
 * Ti              5     -0.02405      0.03057     -0.02853 *
 * Ti              6      0.08475     -0.03633     -0.01960 *
 * Ti              7     -0.05680      0.07277      0.00662 *
 * Ti              8      0.06080     -0.00911     -0.00467 *
 * Ti              9      0.03811     -0.04730     -0.03207 *
 * Ti             10     -0.01007      0.02199      0.00283 *
 * Ti             11      0.08249     -0.07179     -0.04564 *
 * Ti             12     -0.07082      0.00662     -0.00246 *
 * Ti             13      0.00445      0.00151      0.00884 *
 * Ti             14      0.06344     -0.01770     -0.05674 *
 * Ti             15     -0.01569     -0.01063      0.04095 *
 * Ti             16      0.08013      0.01859      0.01569 *
 * Ti             17     -0.00390      0.02902     -0.05770 *
 * Ti             18     -0.07982     -0.01029     -0.11840 *
 * Ti             19     -0.07792      0.01605      0.02632 *
 * Ti             20      0.11806     -0.01414     -0.02104 *
 * Ti             21      0.04236     -0.00104     -0.01549 *
 * Ti             22     -0.03402      0.03096     -0.01138 *
 * Ti             23      0.03798     -0.00558     -0.01082 *
 * Ti             24     -0.00566      0.00366      0.09103 *
 * Ti             25     -0.01658     -0.07423     -0.00222 *
 * Ti             26      0.03040     -0.05821      0.03557 *
 * Ti             27     -0.09076      0.10116      0.08190 *
 * Ti             28     -0.00708     -0.10315     -0.01728 *
 * Ti             29      0.00642      0.04724      0.05026 *
 * Ti             30     -0.02340      0.08939     -0.08224 *
 * Ti             31     -0.16163     -0.10251     -0.14612 *
 * Ti             32      0.05832     -0.03541      0.04446 *
 * Ti             33     -0.15065     -0.24415     -0.08357 *
 * Ti             34      0.03136      0.02725     -0.14914 *
 * Ti             35      0.03739      0.15786      0.23145 *
 * Ti             36     -0.13513      0.01432      0.23148 *
 * Ti             37      0.01730      0.00434     -0.07863 *
 * Ti             38      0.07173      0.16115      0.04247 *
 * Ti             39      0.10019     -0.07400      0.08132 *
 * Ti             40     -0.02650      0.19734      0.09003 *
 * Ti             41      0.01479     -0.08784      0.04281 *
 * Ti             42      0.00543      0.04948     -0.01464 *
 * Ti             43     -0.04128     -0.09220     -0.01405 *
 * Ti             44      0.10030      0.02275      0.02783 *
 * Ti             45      0.02199      0.05540     -0.05185 *
 * Ti             46      0.03170     -0.02263     -0.06109 *
 * Ti             47     -0.03284      0.06700      0.06884 *
 * Ti             48      0.06003     -0.05017     -0.02997 *
 * Ti             49     -0.03282     -0.00230     -0.02537 *
 * Ti             50      0.09628      0.04894     -0.04488 *
 * Ti             51      0.04572     -0.15294     -0.04390 *
 * Ti             52     -0.02458     -0.04063     -0.01636 *
 * Ti             53     -0.03447     -0.06217      0.02277 *
 * Ti             54     -0.04909     -0.02707      0.02094 *
 * Ti             55      0.02440      0.06477      0.01306 *
 * Ti             56      0.15057     -0.00332      0.23922 *
 * Ti             57     -0.05787     -0.01445     -0.10667 *
 * Ti             58      0.03554      0.18188      0.08373 *
 * Ti             59      0.19340     -0.13359     -0.13678 *
 * Ti             60     -0.07032      0.02525     -0.04976 *
 * Ti             61     -0.18080      0.13391      0.05519 *
 * Ti             62     -0.07102      0.01019     -0.02126 *
 * Ti             63     -0.15819     -0.09774     -0.10584 *
 * Ti             64     -0.01751      0.01233      0.06103 *
 * Ti             65      0.00017      0.06197     -0.09047 *
 * Ti             66     -0.08900     -0.03573     -0.07785 *
 * Ti             67      0.04531     -0.01416     -0.08526 *
 * Ti             68     -0.03841      0.02392     -0.11709 *
 * Ti             69     -0.16681     -0.08449     -0.02274 *
 * Ti             70      0.08220      0.04689     -0.10038 *
 * V               1     -0.06896      0.07422      0.02459 *
 * V               2      0.19742      0.22913      0.12310 *
 * V               3      0.38917     -0.17907      0.17771 *
 *                                                          *
 ************************************************************

 ***************** Stress Tensor *****************
 *                                               *
 *          Cartesian components (GPa)           *
 * --------------------------------------------- *
 *             x             y             z     *
 *                                               *
 *  x     -1.246058      0.049757     -0.208584  *
 *  y      0.049757     -1.218259     -0.787899  *
 *  z     -0.208584     -0.787899     -4.840054  *
 *                                               *
 *  Pressure:    2.4348                          *
 *                                               *
 *************************************************

 Pseudo atomic calculation performed for Al 3s2 3p1

 Converged in 15 iterations to a total energy of -107.1308 eV

 Pseudo atomic calculation performed for Ti 3s2 3p6 3d2 4s2

 Converged in 34 iterations to a total energy of -1587.0236 eV

 Pseudo atomic calculation performed for V 3s2 3p6 3d3 4s2

 Converged in 35 iterations to a total energy of -2065.7874 eV
Charge spilling parameter for spin component 1 = 0.08%

            Orbital Populations       
     Ion    Atom   Orbital             Charge
  -------------------------------------------
     Al     1      S                    0.904
     Al     1      Px                   0.684
     Al     1      Py                   0.667
     Al     1      Pz                   0.684
     Al     2      S                    0.948
     Al     2      Px                   0.697
     Al     2      Py                   0.723
     Al     2      Pz                   0.679
     Al     3      S                    0.955
     Al     3      Px                   0.741
     Al     3      Py                   0.748
     Al     3      Pz                   0.641
     Al     4      S                    0.957
     Al     4      Px                   0.738
     Al     4      Py                   0.724
     Al     4      Pz                   0.645
     Al     5      S                    0.928
     Al     5      Px                   0.641
     Al     5      Py                   0.665
     Al     5      Pz                   0.703
     Al     6      S                    0.961
     Al     6      Px                   0.695
     Al     6      Py                   0.716
     Al     6      Pz                   0.679
     Al     7      S                    0.963
     Al     7      Px                   0.671
     Al     7      Py                   0.717
     Al     7      Pz                   0.697
     Al     8      S                    0.941
     Al     8      Px                   0.725
     Al     8      Py                   0.711
     Al     8      Pz                   0.670
     Ti     1      S                    2.001
     Ti     1      Px                   2.004
     Ti     1      Py                   2.004
     Ti     1      Pz                   2.006
     Ti     1      S                    0.307
     Ti     1      Dzz                  0.495
     Ti     1      Dzy                  0.619
     Ti     1      Dzx                  0.633
     Ti     1      Dxx-yy               0.452
     Ti     1      Dxy                  0.448
     Ti     1      Px                   0.339
     Ti     1      Py                   0.353
     Ti     1      Pz                   0.305
     Ti     2      S                    2.006
     Ti     2      Px                   2.008
     Ti     2      Py                   2.008
     Ti     2      Pz                   2.007
     Ti     2      S                    0.255
     Ti     2      Dzz                  0.601
     Ti     2      Dzy                  0.514
     Ti     2      Dzx                  0.508
     Ti     2      Dxx-yy               0.595
     Ti     2      Dxy                  0.592
     Ti     2      Px                   0.294
     Ti     2      Py                   0.304
     Ti     2      Pz                   0.332
     Ti     3      S                    2.005
     Ti     3      Px                   2.007
     Ti     3      Py                   2.008
     Ti     3      Pz                   2.007
     Ti     3      S                    0.261
     Ti     3      Dzz                  0.605
     Ti     3      Dzy                  0.506
     Ti     3      Dzx                  0.498
     Ti     3      Dxx-yy               0.598
     Ti     3      Dxy                  0.593
     Ti     3      Px                   0.302
     Ti     3      Py                   0.317
     Ti     3      Pz                   0.323
     Ti     4      S                    2.006
     Ti     4      Px                   2.008
     Ti     4      Py                   2.008
     Ti     4      Pz                   2.007
     Ti     4      S                    0.249
     Ti     4      Dzz                  0.606
     Ti     4      Dzy                  0.511
     Ti     4      Dzx                  0.503
     Ti     4      Dxx-yy               0.592
     Ti     4      Dxy                  0.596
     Ti     4      Px                   0.292
     Ti     4      Py                   0.306
     Ti     4      Pz                   0.324
     Ti     5      S                    2.005
     Ti     5      Px                   2.007
     Ti     5      Py                   2.008
     Ti     5      Pz                   2.007
     Ti     5      S                    0.262
     Ti     5      Dzz                  0.605
     Ti     5      Dzy                  0.502
     Ti     5      Dzx                  0.496
     Ti     5      Dxx-yy               0.601
     Ti     5      Dxy                  0.595
     Ti     5      Px                   0.304
     Ti     5      Py                   0.317
     Ti     5      Pz                   0.323
     Ti     6      S                    2.001
     Ti     6      Px                   2.004
     Ti     6      Py                   2.004
     Ti     6      Pz                   2.006
     Ti     6      S                    0.306
     Ti     6      Dzz                  0.489
     Ti     6      Dzy                  0.624
     Ti     6      Dzx                  0.646
     Ti     6      Dxx-yy               0.446
     Ti     6      Dxy                  0.440
     Ti     6      Px                   0.334
     Ti     6      Py                   0.350
     Ti     6      Pz                   0.306
     Ti     7      S                    2.006
     Ti     7      Px                   2.008
     Ti     7      Py                   2.008
     Ti     7      Pz                   2.007
     Ti     7      S                    0.242
     Ti     7      Dzz                  0.587
     Ti     7      Dzy                  0.506
     Ti     7      Dzx                  0.510
     Ti     7      Dxx-yy               0.596
     Ti     7      Dxy                  0.604
     Ti     7      Px                   0.315
     Ti     7      Py                   0.319
     Ti     7      Pz                   0.339
     Ti     8      S                    2.005
     Ti     8      Px                   2.007
     Ti     8      Py                   2.007
     Ti     8      Pz                   2.007
     Ti     8      S                    0.248
     Ti     8      Dzz                  0.594
     Ti     8      Dzy                  0.509
     Ti     8      Dzx                  0.508
     Ti     8      Dxx-yy               0.589
     Ti     8      Dxy                  0.587
     Ti     8      Px                   0.324
     Ti     8      Py                   0.326
     Ti     8      Pz                   0.334
     Ti     9      S                    2.001
     Ti     9      Px                   2.004
     Ti     9      Py                   2.004
     Ti     9      Pz                   2.005
     Ti     9      S                    0.289
     Ti     9      Dzz                  0.501
     Ti     9      Dzy                  0.589
     Ti     9      Dzx                  0.611
     Ti     9      Dxx-yy               0.470
     Ti     9      Dxy                  0.461
     Ti     9      Px                   0.356
     Ti     9      Py                   0.349
     Ti     9      Pz                   0.333
     Ti    10      S                    2.005
     Ti    10      Px                   2.008
     Ti    10      Py                   2.008
     Ti    10      Pz                   2.007
     Ti    10      S                    0.249
     Ti    10      Dzz                  0.582
     Ti    10      Dzy                  0.522
     Ti    10      Dzx                  0.519
     Ti    10      Dxx-yy               0.606
     Ti    10      Dxy                  0.584
     Ti    10      Px                   0.281
     Ti    10      Py                   0.304
     Ti    10      Pz                   0.333
     Ti    11      S                    2.005
     Ti    11      Px                   2.007
     Ti    11      Py                   2.008
     Ti    11      Pz                   2.007
     Ti    11      S                    0.260
     Ti    11      Dzz                  0.612
     Ti    11      Dzy                  0.502
     Ti    11      Dzx                  0.488
     Ti    11      Dxx-yy               0.590
     Ti    11      Dxy                  0.608
     Ti    11      Px                   0.322
     Ti    11      Py                   0.304
     Ti    11      Pz                   0.319
     Ti    12      S                    2.001
     Ti    12      Px                   2.004
     Ti    12      Py                   2.004
     Ti    12      Pz                   2.005
     Ti    12      S                    0.287
     Ti    12      Dzz                  0.508
     Ti    12      Dzy                  0.614
     Ti    12      Dzx                  0.595
     Ti    12      Dxx-yy               0.445
     Ti    12      Dxy                  0.466
     Ti    12      Px                   0.349
     Ti    12      Py                   0.349
     Ti    12      Pz                   0.339
     Ti    13      S                    2.005
     Ti    13      Px                   2.007
     Ti    13      Py                   2.007
     Ti    13      Pz                   2.007
     Ti    13      S                    0.238
     Ti    13      Dzz                  0.582
     Ti    13      Dzy                  0.509
     Ti    13      Dzx                  0.513
     Ti    13      Dxx-yy               0.599
     Ti    13      Dxy                  0.600
     Ti    13      Px                   0.324
     Ti    13      Py                   0.316
     Ti    13      Pz                   0.338
     Ti    14      S                    2.005
     Ti    14      Px                   2.007
     Ti    14      Py                   2.008
     Ti    14      Pz                   2.007
     Ti    14      S                    0.252
     Ti    14      Dzz                  0.602
     Ti    14      Dzy                  0.510
     Ti    14      Dzx                  0.488
     Ti    14      Dxx-yy               0.587
     Ti    14      Dxy                  0.604
     Ti    14      Px                   0.333
     Ti    14      Py                   0.316
     Ti    14      Pz                   0.330
     Ti    15      S                    2.001
     Ti    15      Px                   2.004
     Ti    15      Py                   2.003
     Ti    15      Pz                   2.005
     Ti    15      S                    0.295
     Ti    15      Dzz                  0.499
     Ti    15      Dzy                  0.608
     Ti    15      Dzx                  0.611
     Ti    15      Dxx-yy               0.465
     Ti    15      Dxy                  0.444
     Ti    15      Px                   0.353
     Ti    15      Py                   0.349
     Ti    15      Pz                   0.334
     Ti    16      S                    2.005
     Ti    16      Px                   2.006
     Ti    16      Py                   2.007
     Ti    16      Pz                   2.006
     Ti    16      S                    0.252
     Ti    16      Dzz                  0.620
     Ti    16      Dzy                  0.502
     Ti    16      Dzx                  0.491
     Ti    16      Dxx-yy               0.585
     Ti    16      Dxy                  0.590
     Ti    16      Px                   0.313
     Ti    16      Py                   0.314
     Ti    16      Pz                   0.318
     Ti    17      S                    2.005
     Ti    17      Px                   2.007
     Ti    17      Py                   2.007
     Ti    17      Pz                   2.006
     Ti    17      S                    0.264
     Ti    17      Dzz                  0.617
     Ti    17      Dzy                  0.514
     Ti    17      Dzx                  0.493
     Ti    17      Dxx-yy               0.585
     Ti    17      Dxy                  0.584
     Ti    17      Px                   0.310
     Ti    17      Py                   0.315
     Ti    17      Pz                   0.324
     Ti    18      S                    2.001
     Ti    18      Px                   2.004
     Ti    18      Py                   2.004
     Ti    18      Pz                   2.005
     Ti    18      S                    0.293
     Ti    18      Dzz                  0.497
     Ti    18      Dzy                  0.610
     Ti    18      Dzx                  0.597
     Ti    18      Dxx-yy               0.463
     Ti    18      Dxy                  0.470
     Ti    18      Px                   0.358
     Ti    18      Py                   0.347
     Ti    18      Pz                   0.338
     Ti    19      S                    2.005
     Ti    19      Px                   2.008
     Ti    19      Py                   2.007
     Ti    19      Pz                   2.007
     Ti    19      S                    0.252
     Ti    19      Dzz                  0.589
     Ti    19      Dzy                  0.509
     Ti    19      Dzx                  0.513
     Ti    19      Dxx-yy               0.597
     Ti    19      Dxy                  0.600
     Ti    19      Px                   0.307
     Ti    19      Py                   0.293
     Ti    19      Pz                   0.336
     Ti    20      S                    2.005
     Ti    20      Px                   2.008
     Ti    20      Py                   2.007
     Ti    20      Pz                   2.007
     Ti    20      S                    0.255
     Ti    20      Dzz                  0.594
     Ti    20      Dzy                  0.508
     Ti    20      Dzx                  0.511
     Ti    20      Dxx-yy               0.589
     Ti    20      Dxy                  0.602
     Ti    20      Px                   0.301
     Ti    20      Py                   0.294
     Ti    20      Pz                   0.333
     Ti    21      S                    2.000
     Ti    21      Px                   2.003
     Ti    21      Py                   2.003
     Ti    21      Pz                   2.005
     Ti    21      S                    0.296
     Ti    21      Dzz                  0.516
     Ti    21      Dzy                  0.607
     Ti    21      Dzx                  0.594
     Ti    21      Dxx-yy               0.447
     Ti    21      Dxy                  0.462
     Ti    21      Px                   0.358
     Ti    21      Py                   0.349
     Ti    21      Pz                   0.329
     Ti    22      S                    2.005
     Ti    22      Px                   2.008
     Ti    22      Py                   2.007
     Ti    22      Pz                   2.007
     Ti    22      S                    0.247
     Ti    22      Dzz                  0.602
     Ti    22      Dzy                  0.503
     Ti    22      Dzx                  0.513
     Ti    22      Dxx-yy               0.590
     Ti    22      Dxy                  0.600
     Ti    22      Px                   0.311
     Ti    22      Py                   0.292
     Ti    22      Pz                   0.330
     Ti    23      S                    2.005
     Ti    23      Px                   2.007
     Ti    23      Py                   2.007
     Ti    23      Pz                   2.006
     Ti    23      S                    0.243
     Ti    23      Dzz                  0.579
     Ti    23      Dzy                  0.516
     Ti    23      Dzx                  0.507
     Ti    23      Dxx-yy               0.596
     Ti    23      Dxy                  0.593
     Ti    23      Px                   0.306
     Ti    23      Py                   0.320
     Ti    23      Pz                   0.342
     Ti    24      S                    2.001
     Ti    24      Px                   2.003
     Ti    24      Py                   2.004
     Ti    24      Pz                   2.005
     Ti    24      S                    0.296
     Ti    24      Dzz                  0.493
     Ti    24      Dzy                  0.624
     Ti    24      Dzx                  0.605
     Ti    24      Dxx-yy               0.441
     Ti    24      Dxy                  0.467
     Ti    24      Px                   0.352
     Ti    24      Py                   0.351
     Ti    24      Pz                   0.339
     Ti    25      S                    2.005
     Ti    25      Px                   2.007
     Ti    25      Py                   2.007
     Ti    25      Pz                   2.006
     Ti    25      S                    0.244
     Ti    25      Dzz                  0.596
     Ti    25      Dzy                  0.502
     Ti    25      Dzx                  0.501
     Ti    25      Dxx-yy               0.600
     Ti    25      Dxy                  0.587
     Ti    25      Px                   0.328
     Ti    25      Py                   0.329
     Ti    25      Pz                   0.334
     Ti    26      S                    2.004
     Ti    26      Px                   2.007
     Ti    26      Py                   2.006
     Ti    26      Pz                   2.005
     Ti    26      S                    0.246
     Ti    26      Dzz                  0.620
     Ti    26      Dzy                  0.488
     Ti    26      Dzx                  0.514
     Ti    26      Dxx-yy               0.570
     Ti    26      Dxy                  0.598
     Ti    26      Px                   0.285
     Ti    26      Py                   0.285
     Ti    26      Pz                   0.340
     Ti    27      S                    2.001
     Ti    27      Px                   2.003
     Ti    27      Py                   2.004
     Ti    27      Pz                   2.005
     Ti    27      S                    0.303
     Ti    27      Dzz                  0.499
     Ti    27      Dzy                  0.612
     Ti    27      Dzx                  0.597
     Ti    27      Dxx-yy               0.447
     Ti    27      Dxy                  0.486
     Ti    27      Px                   0.343
     Ti    27      Py                   0.326
     Ti    27      Pz                   0.326
     Ti    28      S                    2.003
     Ti    28      Px                   2.006
     Ti    28      Py                   2.006
     Ti    28      Pz                   2.006
     Ti    28      S                    0.268
     Ti    28      Dzz                  0.584
     Ti    28      Dzy                  0.513
     Ti    28      Dzx                  0.550
     Ti    28      Dxx-yy               0.511
     Ti    28      Dxy                  0.560
     Ti    28      Px                   0.312
     Ti    28      Py                   0.321
     Ti    28      Pz                   0.342
     Ti    29      S                    2.003
     Ti    29      Px                   2.007
     Ti    29      Py                   2.006
     Ti    29      Pz                   2.005
     Ti    29      S                    0.275
     Ti    29      Dzz                  0.581
     Ti    29      Dzy                  0.469
     Ti    29      Dzx                  0.491
     Ti    29      Dxx-yy               0.615
     Ti    29      Dxy                  0.602
     Ti    29      Px                   0.338
     Ti    29      Py                   0.332
     Ti    29      Pz                   0.266
     Ti    30      S                    2.000
     Ti    30      Px                   2.003
     Ti    30      Py                   2.003
     Ti    30      Pz                   2.004
     Ti    30      S                    0.293
     Ti    30      Dzz                  0.505
     Ti    30      Dzy                  0.608
     Ti    30      Dzx                  0.579
     Ti    30      Dxx-yy               0.461
     Ti    30      Dxy                  0.466
     Ti    30      Px                   0.372
     Ti    30      Py                   0.361
     Ti    30      Pz                   0.328
     Ti    31      S                    2.003
     Ti    31      Px                   2.006
     Ti    31      Py                   2.006
     Ti    31      Pz                   2.006
     Ti    31      S                    0.258
     Ti    31      Dzz                  0.560
     Ti    31      Dzy                  0.502
     Ti    31      Dzx                  0.566
     Ti    31      Dxx-yy               0.543
     Ti    31      Dxy                  0.545
     Ti    31      Px                   0.310
     Ti    31      Py                   0.306
     Ti    31      Pz                   0.346
     Ti    32      S                    2.001
     Ti    32      Px                   2.003
     Ti    32      Py                   2.004
     Ti    32      Pz                   2.005
     Ti    32      S                    0.303
     Ti    32      Dzz                  0.521
     Ti    32      Dzy                  0.605
     Ti    32      Dzx                  0.601
     Ti    32      Dxx-yy               0.440
     Ti    32      Dxy                  0.480
     Ti    32      Px                   0.336
     Ti    32      Py                   0.315
     Ti    32      Pz                   0.327
     Ti    33      S                    2.003
     Ti    33      Px                   2.006
     Ti    33      Py                   2.007
     Ti    33      Pz                   2.006
     Ti    33      S                    0.262
     Ti    33      Dzz                  0.599
     Ti    33      Dzy                  0.499
     Ti    33      Dzx                  0.531
     Ti    33      Dxx-yy               0.540
     Ti    33      Dxy                  0.580
     Ti    33      Px                   0.303
     Ti    33      Py                   0.275
     Ti    33      Pz                   0.352
     Ti    34      S                    2.002
     Ti    34      Px                   2.005
     Ti    34      Py                   2.005
     Ti    34      Pz                   2.005
     Ti    34      S                    0.288
     Ti    34      Dzz                  0.529
     Ti    34      Dzy                  0.598
     Ti    34      Dzx                  0.572
     Ti    34      Dxx-yy               0.488
     Ti    34      Dxy                  0.482
     Ti    34      Px                   0.304
     Ti    34      Py                   0.345
     Ti    34      Pz                   0.333
     Ti    35      S                    2.003
     Ti    35      Px                   2.006
     Ti    35      Py                   2.005
     Ti    35      Pz                   2.005
     Ti    35      S                    0.274
     Ti    35      Dzz                  0.602
     Ti    35      Dzy                  0.554
     Ti    35      Dzx                  0.519
     Ti    35      Dxx-yy               0.549
     Ti    35      Dxy                  0.526
     Ti    35      Px                   0.303
     Ti    35      Py                   0.262
     Ti    35      Pz                   0.342
     Ti    36      S                    2.004
     Ti    36      Px                   2.007
     Ti    36      Py                   2.007
     Ti    36      Pz                   2.007
     Ti    36      S                    0.315
     Ti    36      Dzz                  0.587
     Ti    36      Dzy                  0.487
     Ti    36      Dzx                  0.489
     Ti    36      Dxx-yy               0.603
     Ti    36      Dxy                  0.615
     Ti    36      Px                   0.377
     Ti    36      Py                   0.378
     Ti    36      Pz                   0.239
     Ti    37      S                    2.002
     Ti    37      Px                   2.005
     Ti    37      Py                   2.005
     Ti    37      Pz                   2.006
     Ti    37      S                    0.283
     Ti    37      Dzz                  0.513
     Ti    37      Dzy                  0.595
     Ti    37      Dzx                  0.570
     Ti    37      Dxx-yy               0.520
     Ti    37      Dxy                  0.452
     Ti    37      Px                   0.342
     Ti    37      Py                   0.338
     Ti    37      Pz                   0.321
     Ti    38      S                    2.003
     Ti    38      Px                   2.006
     Ti    38      Py                   2.006
     Ti    38      Pz                   2.006
     Ti    38      S                    0.258
     Ti    38      Dzz                  0.572
     Ti    38      Dzy                  0.563
     Ti    38      Dzx                  0.508
     Ti    38      Dxx-yy               0.584
     Ti    38      Dxy                  0.500
     Ti    38      Px                   0.326
     Ti    38      Py                   0.306
     Ti    38      Pz                   0.333
     Ti    39      S                    2.003
     Ti    39      Px                   2.006
     Ti    39      Py                   2.005
     Ti    39      Pz                   2.006
     Ti    39      S                    0.292
     Ti    39      Dzz                  0.544
     Ti    39      Dzy                  0.609
     Ti    39      Dzx                  0.564
     Ti    39      Dxx-yy               0.495
     Ti    39      Dxy                  0.467
     Ti    39      Px                   0.301
     Ti    39      Py                   0.345
     Ti    39      Pz                   0.330
     Ti    40      S                    2.003
     Ti    40      Px                   2.005
     Ti    40      Py                   2.006
     Ti    40      Pz                   2.006
     Ti    40      S                    0.277
     Ti    40      Dzz                  0.586
     Ti    40      Dzy                  0.528
     Ti    40      Dzx                  0.522
     Ti    40      Dxx-yy               0.565
     Ti    40      Dxy                  0.527
     Ti    40      Px                   0.335
     Ti    40      Py                   0.262
     Ti    40      Pz                   0.331
     Ti    41      S                    2.004
     Ti    41      Px                   2.006
     Ti    41      Py                   2.007
     Ti    41      Pz                   2.006
     Ti    41      S                    0.269
     Ti    41      Dzz                  0.600
     Ti    41      Dzy                  0.512
     Ti    41      Dzx                  0.517
     Ti    41      Dxx-yy               0.597
     Ti    41      Dxy                  0.575
     Ti    41      Px                   0.310
     Ti    41      Py                   0.295
     Ti    41      Pz                   0.300
     Ti    42      S                    2.001
     Ti    42      Px                   2.003
     Ti    42      Py                   2.003
     Ti    42      Pz                   2.005
     Ti    42      S                    0.315
     Ti    42      Dzz                  0.493
     Ti    42      Dzy                  0.609
     Ti    42      Dzx                  0.633
     Ti    42      Dxx-yy               0.464
     Ti    42      Dxy                  0.447
     Ti    42      Px                   0.332
     Ti    42      Py                   0.377
     Ti    42      Pz                   0.311
     Ti    43      S                    2.004
     Ti    43      Px                   2.006
     Ti    43      Py                   2.006
     Ti    43      Pz                   2.006
     Ti    43      S                    0.277
     Ti    43      Dzz                  0.598
     Ti    43      Dzy                  0.498
     Ti    43      Dzx                  0.485
     Ti    43      Dxx-yy               0.563
     Ti    43      Dxy                  0.612
     Ti    43      Px                   0.341
     Ti    43      Py                   0.328
     Ti    43      Pz                   0.275
     Ti    44      S                    2.004
     Ti    44      Px                   2.007
     Ti    44      Py                   2.007
     Ti    44      Pz                   2.007
     Ti    44      S                    0.282
     Ti    44      Dzz                  0.594
     Ti    44      Dzy                  0.497
     Ti    44      Dzx                  0.488
     Ti    44      Dxx-yy               0.581
     Ti    44      Dxy                  0.595
     Ti    44      Px                   0.361
     Ti    44      Py                   0.331
     Ti    44      Pz                   0.289
     Ti    45      S                    2.001
     Ti    45      Px                   2.003
     Ti    45      Py                   2.003
     Ti    45      Pz                   2.005
     Ti    45      S                    0.317
     Ti    45      Dzz                  0.486
     Ti    45      Dzy                  0.623
     Ti    45      Dzx                  0.618
     Ti    45      Dxx-yy               0.463
     Ti    45      Dxy                  0.451
     Ti    45      Px                   0.331
     Ti    45      Py                   0.360
     Ti    45      Pz                   0.314
     Ti    46      S                    2.004
     Ti    46      Px                   2.007
     Ti    46      Py                   2.007
     Ti    46      Pz                   2.006
     Ti    46      S                    0.264
     Ti    46      Dzz                  0.639
     Ti    46      Dzy                  0.512
     Ti    46      Dzx                  0.480
     Ti    46      Dxx-yy               0.597
     Ti    46      Dxy                  0.583
     Ti    46      Px                   0.315
     Ti    46      Py                   0.289
     Ti    46      Pz                   0.296
     Ti    47      S                    2.001
     Ti    47      Px                   2.004
     Ti    47      Py                   2.004
     Ti    47      Pz                   2.005
     Ti    47      S                    0.297
     Ti    47      Dzz                  0.523
     Ti    47      Dzy                  0.582
     Ti    47      Dzx                  0.601
     Ti    47      Dxx-yy               0.475
     Ti    47      Dxy                  0.488
     Ti    47      Px                   0.323
     Ti    47      Py                   0.285
     Ti    47      Pz                   0.308
     Ti    48      S                    2.006
     Ti    48      Px                   2.008
     Ti    48      Py                   2.009
     Ti    48      Pz                   2.008
     Ti    48      S                    0.238
     Ti    48      Dzz                  0.579
     Ti    48      Dzy                  0.536
     Ti    48      Dzx                  0.507
     Ti    48      Dxx-yy               0.596
     Ti    48      Dxy                  0.583
     Ti    48      Px                   0.319
     Ti    48      Py                   0.305
     Ti    48      Pz                   0.349
     Ti    49      S                    2.005
     Ti    49      Px                   2.008
     Ti    49      Py                   2.007
     Ti    49      Pz                   2.007
     Ti    49      S                    0.234
     Ti    49      Dzz                  0.588
     Ti    49      Dzy                  0.504
     Ti    49      Dzx                  0.513
     Ti    49      Dxx-yy               0.594
     Ti    49      Dxy                  0.612
     Ti    49      Px                   0.309
     Ti    49      Py                   0.290
     Ti    49      Pz                   0.330
     Ti    50      S                    2.000
     Ti    50      Px                   2.004
     Ti    50      Py                   2.003
     Ti    50      Pz                   2.004
     Ti    50      S                    0.294
     Ti    50      Dzz                  0.510
     Ti    50      Dzy                  0.587
     Ti    50      Dzx                  0.609
     Ti    50      Dxx-yy               0.467
     Ti    50      Dxy                  0.451
     Ti    50      Px                   0.330
     Ti    50      Py                   0.365
     Ti    50      Pz                   0.329
     Ti    51      S                    2.005
     Ti    51      Px                   2.007
     Ti    51      Py                   2.008
     Ti    51      Pz                   2.007
     Ti    51      S                    0.255
     Ti    51      Dzz                  0.593
     Ti    51      Dzy                  0.522
     Ti    51      Dzx                  0.467
     Ti    51      Dxx-yy               0.574
     Ti    51      Dxy                  0.621
     Ti    51      Px                   0.317
     Ti    51      Py                   0.299
     Ti    51      Pz                   0.331
     Ti    52      S                    2.005
     Ti    52      Px                   2.008
     Ti    52      Py                   2.007
     Ti    52      Pz                   2.007
     Ti    52      S                    0.244
     Ti    52      Dzz                  0.588
     Ti    52      Dzy                  0.509
     Ti    52      Dzx                  0.515
     Ti    52      Dxx-yy               0.591
     Ti    52      Dxy                  0.601
     Ti    52      Px                   0.312
     Ti    52      Py                   0.292
     Ti    52      Pz                   0.340
     Ti    53      S                    2.001
     Ti    53      Px                   2.004
     Ti    53      Py                   2.004
     Ti    53      Pz                   2.005
     Ti    53      S                    0.300
     Ti    53      Dzz                  0.520
     Ti    53      Dzy                  0.594
     Ti    53      Dzx                  0.612
     Ti    53      Dxx-yy               0.463
     Ti    53      Dxy                  0.476
     Ti    53      Px                   0.348
     Ti    53      Py                   0.284
     Ti    53      Pz                   0.326
     Ti    54      S                    2.005
     Ti    54      Px                   2.008
     Ti    54      Py                   2.008
     Ti    54      Pz                   2.006
     Ti    54      S                    0.242
     Ti    54      Dzz                  0.589
     Ti    54      Dzy                  0.516
     Ti    54      Dzx                  0.485
     Ti    54      Dxx-yy               0.603
     Ti    54      Dxy                  0.599
     Ti    54      Px                   0.302
     Ti    54      Py                   0.318
     Ti    54      Pz                   0.343
     Ti    55      S                    2.005
     Ti    55      Px                   2.008
     Ti    55      Py                   2.007
     Ti    55      Pz                   2.006
     Ti    55      S                    0.224
     Ti    55      Dzz                  0.600
     Ti    55      Dzy                  0.505
     Ti    55      Dzx                  0.495
     Ti    55      Dxx-yy               0.592
     Ti    55      Dxy                  0.611
     Ti    55      Px                   0.299
     Ti    55      Py                   0.310
     Ti    55      Pz                   0.354
     Ti    56      S                    2.002
     Ti    56      Px                   2.005
     Ti    56      Py                   2.004
     Ti    56      Pz                   2.004
     Ti    56      S                    0.266
     Ti    56      Dzz                  0.565
     Ti    56      Dzy                  0.524
     Ti    56      Dzx                  0.519
     Ti    56      Dxx-yy               0.527
     Ti    56      Dxy                  0.568
     Ti    56      Px                   0.307
     Ti    56      Py                   0.308
     Ti    56      Pz                   0.343
     Ti    57      S                    2.005
     Ti    57      Px                   2.007
     Ti    57      Py                   2.008
     Ti    57      Pz                   2.007
     Ti    57      S                    0.260
     Ti    57      Dzz                  0.577
     Ti    57      Dzy                  0.525
     Ti    57      Dzx                  0.506
     Ti    57      Dxx-yy               0.588
     Ti    57      Dxy                  0.602
     Ti    57      Px                   0.320
     Ti    57      Py                   0.314
     Ti    57      Pz                   0.340
     Ti    58      S                    2.002
     Ti    58      Px                   2.005
     Ti    58      Py                   2.005
     Ti    58      Pz                   2.006
     Ti    58      S                    0.279
     Ti    58      Dzz                  0.531
     Ti    58      Dzy                  0.530
     Ti    58      Dzx                  0.590
     Ti    58      Dxx-yy               0.444
     Ti    58      Dxy                  0.544
     Ti    58      Px                   0.365
     Ti    58      Py                   0.320
     Ti    58      Pz                   0.334
     Ti    59      S                    2.003
     Ti    59      Px                   2.006
     Ti    59      Py                   2.006
     Ti    59      Pz                   2.006
     Ti    59      S                    0.257
     Ti    59      Dzz                  0.584
     Ti    59      Dzy                  0.508
     Ti    59      Dzx                  0.540
     Ti    59      Dxx-yy               0.533
     Ti    59      Dxy                  0.563
     Ti    59      Px                   0.303
     Ti    59      Py                   0.316
     Ti    59      Pz                   0.341
     Ti    60      S                    2.005
     Ti    60      Px                   2.007
     Ti    60      Py                   2.007
     Ti    60      Pz                   2.006
     Ti    60      S                    0.257
     Ti    60      Dzz                  0.603
     Ti    60      Dzy                  0.491
     Ti    60      Dzx                  0.504
     Ti    60      Dxx-yy               0.589
     Ti    60      Dxy                  0.597
     Ti    60      Px                   0.318
     Ti    60      Py                   0.324
     Ti    60      Pz                   0.329
     Ti    61      S                    2.003
     Ti    61      Px                   2.006
     Ti    61      Py                   2.006
     Ti    61      Pz                   2.005
     Ti    61      S                    0.280
     Ti    61      Dzz                  0.558
     Ti    61      Dzy                  0.512
     Ti    61      Dzx                  0.597
     Ti    61      Dxx-yy               0.470
     Ti    61      Dxy                  0.541
     Ti    61      Px                   0.335
     Ti    61      Py                   0.275
     Ti    61      Pz                   0.340
     Ti    62      S                    2.004
     Ti    62      Px                   2.007
     Ti    62      Py                   2.006
     Ti    62      Pz                   2.006
     Ti    62      S                    0.263
     Ti    62      Dzz                  0.613
     Ti    62      Dzy                  0.496
     Ti    62      Dzx                  0.500
     Ti    62      Dxx-yy               0.613
     Ti    62      Dxy                  0.535
     Ti    62      Px                   0.317
     Ti    62      Py                   0.337
     Ti    62      Pz                   0.319
     Ti    63      S                    2.002
     Ti    63      Px                   2.005
     Ti    63      Py                   2.005
     Ti    63      Pz                   2.005
     Ti    63      S                    0.291
     Ti    63      Dzz                  0.519
     Ti    63      Dzy                  0.596
     Ti    63      Dzx                  0.563
     Ti    63      Dxx-yy               0.508
     Ti    63      Dxy                  0.498
     Ti    63      Px                   0.292
     Ti    63      Py                   0.327
     Ti    63      Pz                   0.333
     Ti    64      S                    2.005
[...]
             Ti 30 -- Ti 32                  0.36        2.75922
             Ti 18 -- Ti 24                  0.43        2.75968
             Ti 2  -- Ti 7                   0.08        2.75996
             Ti 3  -- Ti 8                   0.06        2.76054
             Ti 48 -- Ti 51                  0.05        2.76067
             Ti 10 -- Ti 13                  0.06        2.76098
             Ti 27 -- Ti 30                  0.41        2.76186
             Ti 18 -- Ti 21                  0.38        2.76225
             Ti 56 -- V 3                    0.22        2.76263
             Ti 66 -- Ti 69                  0.33        2.76272
             Ti 11 -- Ti 17                  0.04        2.76337
             Ti 61 -- V 2                    0.35        2.76462
             Ti 22 -- Ti 25                  0.05        2.76553
             Ti 13 -- Ti 16                  0.06        2.76554
             Ti 4  -- Ti 7                   0.08        2.76712
             Ti 3  -- Ti 5                   0.04        2.76716
             Ti 5  -- Ti 8                   0.05        2.76852
              Al 5 -- Ti 45                  0.47        2.76868
             Ti 2  -- Ti 4                   0.03        2.76919
             Ti 50 -- Ti 53                  0.41        2.76978
             Ti 12 -- Ti 15                  0.41        2.77082
             Ti 10 -- Ti 16                  0.04        2.77117
             Ti 35 -- Ti 38                  0.24        2.77144
             Ti 47 -- Ti 50                  0.38        2.77233
             Ti 35 -- Ti 40                  0.17        2.77264
              Al 1 -- Ti 1                   0.38        2.77367
             Ti 36 -- Ti 58                  0.19        2.77395
              Al 1 -- Ti 6                   0.38        2.77473
             Ti 28 -- Ti 33                  0.19        2.77507
             Ti 21 -- Ti 24                  0.40        2.77549
             Ti 27 -- Ti 32                  0.36        2.77559
             Ti 19 -- Ti 25                  0.05        2.77621
              Al 5 -- Ti 42                  0.39        2.77710
             Ti 65 -- Ti 70                  0.11        2.77736
             Ti 9  -- Ti 12                  0.38        2.77916
             Ti 11 -- Ti 14                  0.08        2.77977
              Al 3 -- V 3                    0.24        2.78230
             Ti 68 -- Ti 70                  0.08        2.78260
             Ti 23 -- Ti 26                  0.11        2.78287
             Ti 52 -- Ti 55                  0.03        2.78295
             Ti 49 -- Ti 55                  0.04        2.78516
             Ti 36 -- Ti 66                  0.19        2.78569
             Ti 20 -- Ti 26                  0.08        2.78767
             Ti 57 -- Ti 60                  0.11        2.78886
             Ti 63 -- Ti 69                  0.30        2.79129
              Al 2 -- Ti 61                  0.23        2.79156
              Al 4 -- Ti 34                  0.31        2.79219
             Ti 54 -- V 2                    0.19        2.79249
              Al 4 -- Ti 36                  0.23        2.79301
             Ti 28 -- Ti 36                  0.12        2.79747
             Ti 60 -- Ti 62                  0.09        2.79757
              Al 3 -- Ti 40                  0.27        2.80075
              Al 3 -- Ti 31                  0.23        2.80147
              Al 3 -- Ti 38                  0.23        2.80244
             Ti 35 -- Ti 36                  0.14        2.80283
             Ti 31 -- Ti 33                  0.19        2.80367
             Ti 58 -- V 1                    0.15        2.80476
             Ti 48 -- Ti 58                  0.10        2.80897
             Ti 51 -- Ti 54                  0.11        2.81323
             Ti 34 -- Ti 39                  0.37        2.81357
             Ti 36 -- Ti 37                  0.19        2.81633
             Ti 65 -- Ti 66                  0.15        2.82348
              Al 4 -- Ti 56                  0.18        2.82489
             Ti 69 -- V 3                    0.13        2.82913
             Ti 36 -- Ti 59                  0.18        2.83378
              Al 3 -- Ti 59                  0.19        2.83786
              Al 3 -- Ti 36                  0.19        2.83999
             Ti 64 -- Ti 67                  0.07        2.84111
             Ti 58 -- Ti 61                  0.32        2.84255
             Ti 30 -- V 1                    0.19        2.84306
             Ti 41 -- Ti 43                  0.06        2.84322
              Al 7 -- Ti 27                  0.24        2.84323
             Ti 32 -- Ti 43                  0.12        2.84534
             Ti 61 -- V 3                    0.15        2.84572
             Ti 64 -- Ti 66                  0.14        2.84658
             Ti 36 -- Ti 38                  0.17        2.84667
             Ti 44 -- Ti 66                  0.16        2.85336
             Ti 63 -- Ti 70                  0.06        2.85378
             Ti 53 -- Ti 67                  0.16        2.85421
             Ti 62 -- V 2                    0.07        2.86064
             Ti 61 -- Ti 62                  0.01        2.86332
             Ti 28 -- V 2                    0.16        2.86549
             Ti 42 -- Ti 44                  0.20        2.87008
             Ti 2  -- Ti 37                  0.15        2.87075
             Ti 11 -- Ti 34                  0.13        2.87159
              Al 6 -- Ti 63                  0.22        2.87297
             Ti 51 -- Ti 61                  0.11        2.87413
             Ti 67 -- Ti 69                  0.15        2.87565
             Ti 44 -- Ti 46                  0.10        2.87714
              Al 2 -- V 2                    0.21        2.87837
             Ti 4  -- Ti 37                  0.13        2.88046
             Ti 18 -- Ti 62                  0.13        2.88081
             Ti 7  -- Ti 39                  0.14        2.88086
             Ti 36 -- Ti 56                  0.16        2.88376
             Ti 66 -- Ti 67                  0.12        2.88378
             Ti 1  -- Ti 64                  0.13        2.88401
              Al 7 -- Ti 47                  0.21        2.88685
             Ti 4  -- Ti 39                  0.11        2.88753
              Al 2 -- Ti 29                  0.25        2.88908
             Ti 24 -- Ti 70                  0.11        2.89093
              Al 8 -- Ti 63                  0.22        2.89201
             Ti 34 -- Ti 35                  0.10        2.89458
             Ti 21 -- Ti 68                  0.15        2.89508
             Ti 3  -- Ti 37                  0.14        2.89524
             Ti 9  -- Ti 57                  0.10        2.89528
              Al 4 -- Ti 40                  0.22        2.89643
              Al 8 -- Ti 69                  0.23        2.89650
              Al 2 -- Ti 53                  0.24        2.89695
             Ti 29 -- Ti 47                  0.15        2.89700
             Ti 5  -- Ti 39                  0.11        2.89799
             Ti 11 -- Ti 37                  0.13        2.89827
              Al 3 -- Ti 33                  0.21        2.89948
             Ti 2  -- Ti 34                  0.10        2.90000
             Ti 68 -- Ti 69                  0.07        2.90109
             Ti 56 -- Ti 59                  0.23        2.90330
             Ti 51 -- Ti 58                  0.09        2.90388
             Ti 16 -- Ti 18                  0.14        2.90466
             Ti 33 -- Ti 61                  0.09        2.90485
             Ti 21 -- Ti 65                  0.17        2.90955
             Ti 57 -- Ti 58                  0.12        2.90996
             Ti 6  -- Ti 67                  0.11        2.91101
             Ti 31 -- Ti 36                  0.13        2.91109
              Al 8 -- Ti 47                  0.19        2.91137
             Ti 17 -- Ti 39                  0.09        2.91137
             Ti 44 -- Ti 50                  0.14        2.91162
              Al 4 -- Ti 28                  0.16        2.91290
             Ti 48 -- V 2                    0.13        2.91294
             Ti 60 -- Ti 61                  0.13        2.91298
             Ti 9  -- Ti 17                  0.14        2.91326
              Al 2 -- Ti 32                  0.23        2.91465
              Al 6 -- Ti 66                  0.19        2.91730
             Ti 46 -- Ti 69                  0.11        2.91748
             Ti 33 -- V 2                    0.12        2.91894
             Ti 14 -- Ti 39                  0.11        2.91945
             Ti 27 -- Ti 29                  0.14        2.92025
             Ti 14 -- Ti 37                  0.13        2.92080
             Ti 35 -- Ti 63                  0.12        2.92214
              Al 5 -- Ti 46                  0.21        2.92293
             Ti 24 -- Ti 68                  0.10        2.92462
             Ti 46 -- Ti 53                  0.12        2.92525
             Ti 24 -- Ti 60                  0.11        2.92537
             Ti 15 -- Ti 54                  0.12        2.92613
             Ti 63 -- Ti 64                  0.11        2.92639
             Ti 5  -- Ti 37                  0.10        2.92665
             Ti 9  -- Ti 10                  0.11        2.92671
             Ti 37 -- Ti 38                  0.08        2.92723
             Ti 43 -- Ti 53                  0.10        2.92762
              Al 5 -- Ti 17                  0.17        2.92768
              Al 8 -- Ti 6                   0.20        2.92793
             Ti 46 -- Ti 47                  0.11        2.92855
             Ti 30 -- Ti 41                  0.10        2.92908
             Ti 56 -- V 2                    0.15        2.93006
             Ti 15 -- Ti 16                  0.12        2.93043
             Ti 8  -- Ti 32                  0.11        2.93222
             Ti 8  -- Ti 34                  0.10        2.93274
             Ti 1  -- Ti 25                  0.13        2.93337
              Al 6 -- Ti 47                  0.21        2.93396
             Ti 7  -- Ti 34                  0.11        2.93467
             Ti 5  -- Ti 30                  0.15        2.93528
             Ti 9  -- Ti 54                  0.14        2.93584
             Ti 63 -- V 3                    0.17        2.93683
             Ti 66 -- Ti 68                  0.17        2.93707
             Ti 44 -- Ti 45                  0.13        2.93719
             Ti 8  -- Ti 39                  0.11        2.93744
             Ti 21 -- Ti 57                  0.14        2.93758
             Ti 45 -- Ti 46                  0.15        2.93815
              Al 1 -- Ti 64                  0.16        2.93943
             Ti 26 -- Ti 27                  0.15        2.94031
             Ti 39 -- Ti 40                  0.11        2.94035
             Ti 6  -- Ti 7                   0.09        2.94073
              Al 8 -- Ti 1                   0.19        2.94098
             Ti 58 -- Ti 59                  0.15        2.94149
             Ti 18 -- Ti 20                  0.13        2.94166
             Ti 2  -- Ti 12                  0.13        2.94180
             Ti 18 -- Ti 70                  0.08        2.94260
              Al 7 -- Ti 53                  0.14        2.94281
             Ti 43 -- Ti 50                  0.09        2.94288
              Al 6 -- Ti 50                  0.15        2.94325
             Ti 31 -- Ti 58                  0.07        2.94401
             Ti 12 -- Ti 52                  0.10        2.94404
             Ti 40 -- Ti 69                  0.10        2.94501
             Ti 52 -- Ti 53                  0.11        2.94531
              Al 4 -- Ti 35                  0.17        2.94598
             Ti 14 -- Ti 45                  0.13        2.94680
              Al 5 -- Ti 10                  0.14        2.94779
             Ti 41 -- Ti 42                  0.14        2.94825
             Ti 3  -- Ti 27                  0.14        2.94850
              Al 1 -- Ti 19                  0.16        2.94855
             Ti 3  -- Ti 34                  0.10        2.94872
             Ti 24 -- Ti 62                  0.12        2.94951
             Ti 12 -- Ti 13                  0.11        2.94959
              Al 1 -- Ti 67                  0.15        2.94968
             Ti 11 -- Ti 42                  0.13        2.95003
              Al 1 -- Ti 4                   0.15        2.95032
             Ti 29 -- Ti 58                  0.04        2.95098
             Ti 26 -- Ti 45                  0.09        2.95182
              Al 5 -- Al 6                   0.19        2.95379
             Ti 47 -- Ti 55                  0.07        2.95381
             Ti 17 -- Ti 34                  0.11        2.95398
             Ti 69 -- Ti 70                  0.04        2.95411
             Ti 18 -- Ti 56                  0.13        2.95541
             Ti 59 -- Ti 61                  0.10        2.95564
             Ti 4  -- Ti 12                  0.12        2.95592
             Ti 23 -- Ti 42                  0.11        2.95667
             Ti 3  -- Ti 30                  0.14        2.95831
              Al 8 -- Ti 53                  0.16        2.95853
             Ti 28 -- Ti 58                  0.04        2.95866
             Ti 6  -- Ti 68                  0.10        2.95894
             Ti 50 -- Ti 64                  0.12        2.95899
             Ti 19 -- Ti 27                  0.09        2.95969
              Al 1 -- Ti 65                  0.16        2.95978
             Ti 18 -- Ti 65                  0.11        2.96027
             Ti 6  -- Ti 25                  0.10        2.96050
             Ti 9  -- Ti 16                  0.11        2.96075
             Ti 4  -- Ti 15                  0.11        2.96163
             Ti 59 -- Ti 69                  0.11        2.96165
             Ti 6  -- Ti 55                  0.11        2.96166
             Ti 12 -- Ti 49                  0.12        2.96254
             Ti 7  -- Ti 9                   0.11        2.96349
             Ti 15 -- Ti 52                  0.08        2.96364
             Ti 12 -- Ti 57                  0.13        2.96367
             Ti 12 -- Ti 60                  0.11        2.96383
             Ti 20 -- Ti 21                  0.08        2.96403
             Ti 1  -- Ti 2                   0.11        2.96411
              Al 5 -- Ti 41                  0.15        2.96449
             Ti 13 -- Ti 42                  0.12        2.96726
             Ti 10 -- Ti 42                  0.09        2.96735
             Ti 28 -- Ti 37                  0.13        2.96760
             Ti 1  -- Ti 7                   0.09        2.96763
             Ti 15 -- Ti 60                  0.12        2.96777
             Ti 11 -- Ti 12                  0.09        2.96842
             Ti 63 -- Ti 65                  0.05        2.96885
             Ti 8  -- Ti 27                  0.09        2.96930
             Ti 46 -- Ti 63                  0.13        2.96937
             Ti 38 -- Ti 39                  0.11        2.96992
             Ti 28 -- Ti 34                  0.11        2.97023
             Ti 56 -- Ti 63                  0.11        2.97078
             Ti 22 -- Ti 32                  0.11        2.97130
              Al 5 -- Ti 11                  0.16        2.97190
             Ti 14 -- Ti 42                  0.15        2.97227
              Al 1 -- Ti 3                   0.15        2.97248
             Ti 24 -- Ti 25                  0.14        2.97278
             Ti 47 -- Ti 64                  0.09        2.97309
             Ti 12 -- Ti 14                  0.09        2.97362
             Ti 31 -- Ti 37                  0.10        2.97370
             Ti 12 -- Ti 48                  0.10        2.97474
              Al 1 -- Ti 5                   0.16        2.97486
             Ti 31 -- Ti 39                  0.12        2.97525
             Ti 13 -- Ti 24                  0.10        2.97536
             Ti 5  -- Ti 32                  0.13        2.97548
             Ti 6  -- Ti 22                  0.12        2.97603
             Ti 22 -- Ti 30                  0.11        2.97637
             Ti 15 -- Ti 55                  0.13        2.97653
              Al 1 -- Ti 2                   0.13        2.97661
             Ti 50 -- Ti 51                  0.09        2.97677
             Ti 14 -- Ti 15                  0.10        2.97719
             Ti 51 -- Ti 53                  0.11        2.97720
             Ti 15 -- Ti 17                  0.09        2.97933
             Ti 18 -- Ti 19                  0.09        2.98023
             Ti 31 -- Ti 61                  0.05        2.98073
             Ti 9  -- Ti 11                  0.12        2.98090
             Ti 58 -- Ti 60                  0.13        2.98111
             Ti 21 -- Ti 60                  0.13        2.98154
             Ti 5  -- Ti 6                   0.12        2.98234
             Ti 32 -- V 1                    0.16        2.98258
             Ti 1  -- Ti 49                  0.08        2.98291
             Ti 43 -- Ti 45                  0.19        2.98354
              Al 6 -- Ti 42                  0.18        2.98365
             Ti 59 -- Ti 66                  0.11        2.98374
             Ti 41 -- Ti 50                  0.11        2.98457
             Ti 50 -- V 1                    0.17        2.98469
             Ti 9  -- Ti 55                  0.10        2.98500
             Ti 18 -- Ti 26                  0.12        2.98512
             Ti 53 -- Ti 55                  0.03        2.98524
             Ti 21 -- Ti 22                  0.11        2.98559
             Ti 44 -- Ti 69                  0.07        2.98620
             Ti 49 -- Ti 50                  0.10        2.98674
             Ti 33 -- Ti 34                  0.12        2.98740
             Ti 9  -- Ti 48                  0.12        2.98745
             Ti 38 -- Ti 69                  0.11        2.98888
             Ti 44 -- Ti 53                  0.11        2.98906
             Ti 47 -- Ti 49                  0.08        2.99042
             Ti 10 -- Ti 12                  0.09        2.99129
             Ti 61 -- V 1                    0.10        2.99137
             Ti 4  -- Ti 6                   0.11        2.99169
             Ti 19 -- Ti 30                  0.12        2.99213
             Ti 18 -- Ti 57                  0.11        2.99222
             Ti 1  -- Ti 19                  0.12        2.99245
             Ti 16 -- Ti 24                  0.12        2.99251
             Ti 27 -- Ti 41                  0.15        2.99263
             Ti 2  -- Ti 9                   0.08        2.99268
             Ti 34 -- Ti 40                  0.11        2.99328
              Al 1 -- Ti 22                  0.14        2.99474
             Ti 13 -- Ti 15                  0.11        2.99616
             Ti 23 -- Ti 32                  0.11        2.99721
             Ti 26 -- Ti 32                  0.13        2.99810
             Ti 24 -- V 3                    0.17        2.99839
             Ti 25 -- Ti 32                  0.10        2.99842
             Ti 18 -- Ti 25                  0.11        2.99928
======================================================================

 
 A BibTeX formatted list of references used in this run has been written to 
 sqs_hex_sc3x3x3_Ti70Al8V3_frame0_15.bib
 
Initialisation time =     23.60 s
Calculation time    =   7440.18 s
Finalisation time   =      0.56 s
Total time          =   7464.34 s
Peak Memory Use     = 2781756 kB
 
Overall parallel efficiency rating: Mediocre (57%)
 
Data was distributed by:-
G-vector (16-way); efficiency rating: Mediocre (58%)
k-point (15-way); efficiency rating: Excellent (96%)
